********************************************************************************
*                       GENERAL UTILITY LATTICE PROGRAM                        *
*                                 Julian Gale                                  *
*                       Curtin Institute for Computation                       *
*                           Department of Chemistry                            *
*                    Curtin University, Western Australia                      *
********************************************************************************
* Version = 5.1.1 * Last modified =  24th November 2018                        *
********************************************************************************
*  optimise     - perform optimisation run                                     *
*  conp         - constant pressure calculation                                *
*  distance     - calculate distances                                          *
*  compare      - compare initial and final structures                         *
********************************************************************************

  Job Started  at 17:28.53  6th January    2019                               

  Number of CPUs =     1


  Total number of configurations input =      1

********************************************************************************
*  Input for Configuration =   1                                               *
********************************************************************************

  Formula = Au1371                                                      

  Number of irreducible atoms/shells =    1371


  Total number atoms/shells =    1371

  Dimensionality = 3               :  Bulk   



  Cartesian lattice vectors (Angstroms) :

       28.539000    0.000000    0.000000
        0.000000   28.539000    0.000000
        0.000000    0.000000   28.539000

  Cell parameters (Angstroms/Degrees):

  a =      28.5390    alpha =  90.0000
  b =      28.5390    beta  =  90.0000
  c =      28.5390    gamma =  90.0000

  Initial cell volume =       23244.288355 Angs**3

  Temperature of configuration =  0.000     K 

  Pressure of configuration =         0.000 GPa 

  Fractional coordinates of asymmetric unit :

--------------------------------------------------------------------------------
   No.  Atomic       x           y          z         Charge      Occupancy
        Label      (Frac)      (Frac)     (Frac)        (e)         (Frac)  
--------------------------------------------------------------------------------
      1 Au    c    0.000000    0.000000    0.000000     0.00000    1.000000    
      2 Au    c    0.000000 *  0.000000 *  0.142857 *   0.00000    1.000000    
      3 Au    c    0.000000 *  0.000000 *  0.285714 *   0.00000    1.000000    
      4 Au    c    0.000000 *  0.000000 *  0.428571 *   0.00000    1.000000    
      5 Au    c    0.000000 *  0.000000 *  0.571429 *   0.00000    1.000000    
      6 Au    c    0.000000 *  0.000000 *  0.714286 *   0.00000    1.000000    
      7 Au    c    0.000000 *  0.000000 *  0.857143 *   0.00000    1.000000    
      8 Au    c    0.000000 *  0.142857 *  0.000000 *   0.00000    1.000000    
      9 Au    c    0.000000 *  0.142857 *  0.142857 *   0.00000    1.000000    
     10 Au    c    0.000000 *  0.142857 *  0.285714 *   0.00000    1.000000    
     11 Au    c    0.000000 *  0.142857 *  0.428571 *   0.00000    1.000000    
     12 Au    c    0.000000 *  0.142857 *  0.571429 *   0.00000    1.000000    
     13 Au    c    0.000000 *  0.142857 *  0.714286 *   0.00000    1.000000    
     14 Au    c    0.000000 *  0.142857 *  0.857143 *   0.00000    1.000000    
     15 Au    c    0.000000 *  0.285714 *  0.000000 *   0.00000    1.000000    
     16 Au    c    0.000000 *  0.285714 *  0.142857 *   0.00000    1.000000    
     17 Au    c    0.000000 *  0.285714 *  0.285714 *   0.00000    1.000000    
     18 Au    c    0.000000 *  0.285714 *  0.428571 *   0.00000    1.000000    
     19 Au    c    0.000000 *  0.285714 *  0.571429 *   0.00000    1.000000    
     20 Au    c    0.000000 *  0.285714 *  0.714286 *   0.00000    1.000000    
     21 Au    c    0.000000 *  0.285714 *  0.857143 *   0.00000    1.000000    
     22 Au    c    0.000000 *  0.428571 *  0.000000 *   0.00000    1.000000    
     23 Au    c    0.000000 *  0.428571 *  0.142857 *   0.00000    1.000000    
     24 Au    c    0.000000 *  0.428571 *  0.285714 *   0.00000    1.000000    
     25 Au    c    0.000000 *  0.428571 *  0.428571 *   0.00000    1.000000    
     26 Au    c    0.000000 *  0.428571 *  0.571429 *   0.00000    1.000000    
     27 Au    c    0.000000 *  0.428571 *  0.714286 *   0.00000    1.000000    
     28 Au    c    0.000000 *  0.428571 *  0.857143 *   0.00000    1.000000    
     29 Au    c    0.000000 *  0.571429 *  0.000000 *   0.00000    1.000000    
     30 Au    c    0.000000 *  0.571429 *  0.142857 *   0.00000    1.000000    
     31 Au    c    0.000000 *  0.571429 *  0.285714 *   0.00000    1.000000    
     32 Au    c    0.000000 *  0.571429 *  0.428571 *   0.00000    1.000000    
     33 Au    c    0.000000 *  0.571429 *  0.571429 *   0.00000    1.000000    
     34 Au    c    0.000000 *  0.571429 *  0.714286 *   0.00000    1.000000    
     35 Au    c    0.000000 *  0.571429 *  0.857143 *   0.00000    1.000000    
     36 Au    c    0.000000 *  0.714286 *  0.000000 *   0.00000    1.000000    
     37 Au    c    0.000000 *  0.714286 *  0.142857 *   0.00000    1.000000    
     38 Au    c    0.000000 *  0.714286 *  0.285714 *   0.00000    1.000000    
     39 Au    c    0.000000 *  0.714286 *  0.428571 *   0.00000    1.000000    
     40 Au    c    0.000000 *  0.714286 *  0.571429 *   0.00000    1.000000    
     41 Au    c    0.000000 *  0.714286 *  0.714286 *   0.00000    1.000000    
     42 Au    c    0.000000 *  0.714286 *  0.857143 *   0.00000    1.000000    
     43 Au    c    0.000000 *  0.857143 *  0.000000 *   0.00000    1.000000    
     44 Au    c    0.000000 *  0.857143 *  0.142857 *   0.00000    1.000000    
     45 Au    c    0.000000 *  0.857143 *  0.285714 *   0.00000    1.000000    
     46 Au    c    0.000000 *  0.857143 *  0.428571 *   0.00000    1.000000    
     47 Au    c    0.000000 *  0.857143 *  0.571429 *   0.00000    1.000000    
     48 Au    c    0.000000 *  0.857143 *  0.714286 *   0.00000    1.000000    
     49 Au    c    0.000000 *  0.857143 *  0.857143 *   0.00000    1.000000    
     50 Au    c    0.142857 *  0.000000 *  0.000000 *   0.00000    1.000000    
     51 Au    c    0.142857 *  0.000000 *  0.142857 *   0.00000    1.000000    
     52 Au    c    0.142857 *  0.000000 *  0.285714 *   0.00000    1.000000    
     53 Au    c    0.142857 *  0.000000 *  0.428571 *   0.00000    1.000000    
     54 Au    c    0.142857 *  0.000000 *  0.571429 *   0.00000    1.000000    
     55 Au    c    0.142857 *  0.000000 *  0.714286 *   0.00000    1.000000    
     56 Au    c    0.142857 *  0.000000 *  0.857143 *   0.00000    1.000000    
     57 Au    c    0.142857 *  0.142857 *  0.000000 *   0.00000    1.000000    
     58 Au    c    0.142857 *  0.142857 *  0.142857 *   0.00000    1.000000    
     59 Au    c    0.142857 *  0.142857 *  0.285714 *   0.00000    1.000000    
     60 Au    c    0.142857 *  0.142857 *  0.428571 *   0.00000    1.000000    
     61 Au    c    0.142857 *  0.142857 *  0.571429 *   0.00000    1.000000    
     62 Au    c    0.142857 *  0.142857 *  0.714286 *   0.00000    1.000000    
     63 Au    c    0.142857 *  0.142857 *  0.857143 *   0.00000    1.000000    
     64 Au    c    0.142857 *  0.285714 *  0.000000 *   0.00000    1.000000    
     65 Au    c    0.142857 *  0.285714 *  0.142857 *   0.00000    1.000000    
     66 Au    c    0.142857 *  0.285714 *  0.285714 *   0.00000    1.000000    
     67 Au    c    0.142857 *  0.285714 *  0.428571 *   0.00000    1.000000    
     68 Au    c    0.142857 *  0.285714 *  0.571429 *   0.00000    1.000000    
     69 Au    c    0.142857 *  0.285714 *  0.714286 *   0.00000    1.000000    
     70 Au    c    0.142857 *  0.285714 *  0.857143 *   0.00000    1.000000    
     71 Au    c    0.142857 *  0.428571 *  0.000000 *   0.00000    1.000000    
     72 Au    c    0.142857 *  0.428571 *  0.142857 *   0.00000    1.000000    
     73 Au    c    0.142857 *  0.428571 *  0.285714 *   0.00000    1.000000    
     74 Au    c    0.142857 *  0.428571 *  0.428571 *   0.00000    1.000000    
     75 Au    c    0.142857 *  0.428571 *  0.571429 *   0.00000    1.000000    
     76 Au    c    0.142857 *  0.428571 *  0.714286 *   0.00000    1.000000    
     77 Au    c    0.142857 *  0.428571 *  0.857143 *   0.00000    1.000000    
     78 Au    c    0.142857 *  0.571429 *  0.000000 *   0.00000    1.000000    
     79 Au    c    0.142857 *  0.571429 *  0.142857 *   0.00000    1.000000    
     80 Au    c    0.142857 *  0.571429 *  0.285714 *   0.00000    1.000000    
     81 Au    c    0.142857 *  0.571429 *  0.428571 *   0.00000    1.000000    
     82 Au    c    0.142857 *  0.571429 *  0.571429 *   0.00000    1.000000    
     83 Au    c    0.142857 *  0.571429 *  0.714286 *   0.00000    1.000000    
     84 Au    c    0.142857 *  0.571429 *  0.857143 *   0.00000    1.000000    
     85 Au    c    0.142857 *  0.714286 *  0.000000 *   0.00000    1.000000    
     86 Au    c    0.142857 *  0.714286 *  0.142857 *   0.00000    1.000000    
     87 Au    c    0.142857 *  0.714286 *  0.285714 *   0.00000    1.000000    
     88 Au    c    0.142857 *  0.714286 *  0.428571 *   0.00000    1.000000    
     89 Au    c    0.142857 *  0.714286 *  0.571429 *   0.00000    1.000000    
     90 Au    c    0.142857 *  0.714286 *  0.714286 *   0.00000    1.000000    
     91 Au    c    0.142857 *  0.714286 *  0.857143 *   0.00000    1.000000    
     92 Au    c    0.142857 *  0.857143 *  0.000000 *   0.00000    1.000000    
     93 Au    c    0.142857 *  0.857143 *  0.142857 *   0.00000    1.000000    
     94 Au    c    0.142857 *  0.857143 *  0.285714 *   0.00000    1.000000    
     95 Au    c    0.142857 *  0.857143 *  0.428571 *   0.00000    1.000000    
     96 Au    c    0.142857 *  0.857143 *  0.571429 *   0.00000    1.000000    
     97 Au    c    0.142857 *  0.857143 *  0.714286 *   0.00000    1.000000    
     98 Au    c    0.142857 *  0.857143 *  0.857143 *   0.00000    1.000000    
     99 Au    c    0.285714 *  0.000000 *  0.000000 *   0.00000    1.000000    
    100 Au    c    0.285714 *  0.000000 *  0.142857 *   0.00000    1.000000    
    101 Au    c    0.285714 *  0.000000 *  0.285714 *   0.00000    1.000000    
    102 Au    c    0.285714 *  0.000000 *  0.428571 *   0.00000    1.000000    
    103 Au    c    0.285714 *  0.000000 *  0.571429 *   0.00000    1.000000    
    104 Au    c    0.285714 *  0.000000 *  0.714286 *   0.00000    1.000000    
    105 Au    c    0.285714 *  0.000000 *  0.857143 *   0.00000    1.000000    
    106 Au    c    0.285714 *  0.142857 *  0.000000 *   0.00000    1.000000    
    107 Au    c    0.285714 *  0.142857 *  0.142857 *   0.00000    1.000000    
    108 Au    c    0.285714 *  0.142857 *  0.285714 *   0.00000    1.000000    
    109 Au    c    0.285714 *  0.142857 *  0.428571 *   0.00000    1.000000    
    110 Au    c    0.285714 *  0.142857 *  0.571429 *   0.00000    1.000000    
    111 Au    c    0.285714 *  0.142857 *  0.714286 *   0.00000    1.000000    
    112 Au    c    0.285714 *  0.142857 *  0.857143 *   0.00000    1.000000    
    113 Au    c    0.285714 *  0.285714 *  0.000000 *   0.00000    1.000000    
    114 Au    c    0.285714 *  0.285714 *  0.142857 *   0.00000    1.000000    
    115 Au    c    0.285714 *  0.285714 *  0.285714 *   0.00000    1.000000    
    116 Au    c    0.285714 *  0.285714 *  0.428571 *   0.00000    1.000000    
    117 Au    c    0.285714 *  0.285714 *  0.571429 *   0.00000    1.000000    
    118 Au    c    0.285714 *  0.285714 *  0.714286 *   0.00000    1.000000    
    119 Au    c    0.285714 *  0.285714 *  0.857143 *   0.00000    1.000000    
    120 Au    c    0.285714 *  0.428571 *  0.000000 *   0.00000    1.000000    
    121 Au    c    0.285714 *  0.428571 *  0.142857 *   0.00000    1.000000    
    122 Au    c    0.285714 *  0.428571 *  0.285714 *   0.00000    1.000000    
    123 Au    c    0.285714 *  0.428571 *  0.428571 *   0.00000    1.000000    
    124 Au    c    0.285714 *  0.428571 *  0.571429 *   0.00000    1.000000    
    125 Au    c    0.285714 *  0.428571 *  0.714286 *   0.00000    1.000000    
    126 Au    c    0.285714 *  0.428571 *  0.857143 *   0.00000    1.000000    
    127 Au    c    0.285714 *  0.571429 *  0.000000 *   0.00000    1.000000    
    128 Au    c    0.285714 *  0.571429 *  0.142857 *   0.00000    1.000000    
    129 Au    c    0.285714 *  0.571429 *  0.285714 *   0.00000    1.000000    
    130 Au    c    0.285714 *  0.571429 *  0.428571 *   0.00000    1.000000    
    131 Au    c    0.285714 *  0.571429 *  0.571429 *   0.00000    1.000000    
    132 Au    c    0.285714 *  0.571429 *  0.714286 *   0.00000    1.000000    
    133 Au    c    0.285714 *  0.571429 *  0.857143 *   0.00000    1.000000    
    134 Au    c    0.285714 *  0.714286 *  0.000000 *   0.00000    1.000000    
    135 Au    c    0.285714 *  0.714286 *  0.142857 *   0.00000    1.000000    
    136 Au    c    0.285714 *  0.714286 *  0.285714 *   0.00000    1.000000    
    137 Au    c    0.285714 *  0.714286 *  0.428571 *   0.00000    1.000000    
    138 Au    c    0.285714 *  0.714286 *  0.571429 *   0.00000    1.000000    
    139 Au    c    0.285714 *  0.714286 *  0.714286 *   0.00000    1.000000    
    140 Au    c    0.285714 *  0.714286 *  0.857143 *   0.00000    1.000000    
    141 Au    c    0.285714 *  0.857143 *  0.000000 *   0.00000    1.000000    
    142 Au    c    0.285714 *  0.857143 *  0.142857 *   0.00000    1.000000    
    143 Au    c    0.285714 *  0.857143 *  0.285714 *   0.00000    1.000000    
    144 Au    c    0.285714 *  0.857143 *  0.428571 *   0.00000    1.000000    
    145 Au    c    0.285714 *  0.857143 *  0.571429 *   0.00000    1.000000    
    146 Au    c    0.285714 *  0.857143 *  0.714286 *   0.00000    1.000000    
    147 Au    c    0.285714 *  0.857143 *  0.857143 *   0.00000    1.000000    
    148 Au    c    0.428571 *  0.000000 *  0.000000 *   0.00000    1.000000    
    149 Au    c    0.428571 *  0.000000 *  0.142857 *   0.00000    1.000000    
    150 Au    c    0.428571 *  0.000000 *  0.285714 *   0.00000    1.000000    
    151 Au    c    0.428571 *  0.000000 *  0.428571 *   0.00000    1.000000    
    152 Au    c    0.428571 *  0.000000 *  0.571429 *   0.00000    1.000000    
    153 Au    c    0.428571 *  0.000000 *  0.714286 *   0.00000    1.000000    
    154 Au    c    0.428571 *  0.000000 *  0.857143 *   0.00000    1.000000    
    155 Au    c    0.428571 *  0.142857 *  0.000000 *   0.00000    1.000000    
    156 Au    c    0.428571 *  0.142857 *  0.142857 *   0.00000    1.000000    
    157 Au    c    0.428571 *  0.142857 *  0.285714 *   0.00000    1.000000    
    158 Au    c    0.428571 *  0.142857 *  0.428571 *   0.00000    1.000000    
    159 Au    c    0.428571 *  0.142857 *  0.571429 *   0.00000    1.000000    
    160 Au    c    0.428571 *  0.142857 *  0.714286 *   0.00000    1.000000    
    161 Au    c    0.428571 *  0.142857 *  0.857143 *   0.00000    1.000000    
    162 Au    c    0.428571 *  0.285714 *  0.000000 *   0.00000    1.000000    
    163 Au    c    0.428571 *  0.285714 *  0.142857 *   0.00000    1.000000    
    164 Au    c    0.428571 *  0.285714 *  0.285714 *   0.00000    1.000000    
    165 Au    c    0.428571 *  0.285714 *  0.428571 *   0.00000    1.000000    
    166 Au    c    0.428571 *  0.285714 *  0.571429 *   0.00000    1.000000    
    167 Au    c    0.428571 *  0.285714 *  0.714286 *   0.00000    1.000000    
    168 Au    c    0.428571 *  0.285714 *  0.857143 *   0.00000    1.000000    
    169 Au    c    0.428571 *  0.428571 *  0.000000 *   0.00000    1.000000    
    170 Au    c    0.428571 *  0.428571 *  0.142857 *   0.00000    1.000000    
    171 Au    c    0.428571 *  0.428571 *  0.285714 *   0.00000    1.000000    
    172 Au    c    0.428571 *  0.428571 *  0.428571 *   0.00000    1.000000    
    173 Au    c    0.428571 *  0.428571 *  0.571429 *   0.00000    1.000000    
    174 Au    c    0.428571 *  0.428571 *  0.714286 *   0.00000    1.000000    
    175 Au    c    0.428571 *  0.428571 *  0.857143 *   0.00000    1.000000    
    176 Au    c    0.428571 *  0.571429 *  0.000000 *   0.00000    1.000000    
    177 Au    c    0.428571 *  0.571429 *  0.142857 *   0.00000    1.000000    
    178 Au    c    0.428571 *  0.571429 *  0.285714 *   0.00000    1.000000    
    179 Au    c    0.428571 *  0.571429 *  0.428571 *   0.00000    1.000000    
    180 Au    c    0.428571 *  0.571429 *  0.571429 *   0.00000    1.000000    
    181 Au    c    0.428571 *  0.571429 *  0.714286 *   0.00000    1.000000    
    182 Au    c    0.428571 *  0.571429 *  0.857143 *   0.00000    1.000000    
    183 Au    c    0.428571 *  0.714286 *  0.000000 *   0.00000    1.000000    
    184 Au    c    0.428571 *  0.714286 *  0.142857 *   0.00000    1.000000    
    185 Au    c    0.428571 *  0.714286 *  0.285714 *   0.00000    1.000000    
    186 Au    c    0.428571 *  0.714286 *  0.428571 *   0.00000    1.000000    
    187 Au    c    0.428571 *  0.714286 *  0.571429 *   0.00000    1.000000    
    188 Au    c    0.428571 *  0.714286 *  0.714286 *   0.00000    1.000000    
    189 Au    c    0.428571 *  0.714286 *  0.857143 *   0.00000    1.000000    
    190 Au    c    0.428571 *  0.857143 *  0.000000 *   0.00000    1.000000    
    191 Au    c    0.428571 *  0.857143 *  0.142857 *   0.00000    1.000000    
    192 Au    c    0.428571 *  0.857143 *  0.285714 *   0.00000    1.000000    
    193 Au    c    0.428571 *  0.857143 *  0.428571 *   0.00000    1.000000    
    194 Au    c    0.428571 *  0.857143 *  0.571429 *   0.00000    1.000000    
    195 Au    c    0.428571 *  0.857143 *  0.714286 *   0.00000    1.000000    
    196 Au    c    0.428571 *  0.857143 *  0.857143 *   0.00000    1.000000    
    197 Au    c    0.571429 *  0.000000 *  0.000000 *   0.00000    1.000000    
    198 Au    c    0.571429 *  0.000000 *  0.142857 *   0.00000    1.000000    
    199 Au    c    0.571429 *  0.000000 *  0.285714 *   0.00000    1.000000    
    200 Au    c    0.571429 *  0.000000 *  0.428571 *   0.00000    1.000000    
    201 Au    c    0.571429 *  0.000000 *  0.571429 *   0.00000    1.000000    
    202 Au    c    0.571429 *  0.000000 *  0.714286 *   0.00000    1.000000    
    203 Au    c    0.571429 *  0.000000 *  0.857143 *   0.00000    1.000000    
    204 Au    c    0.571429 *  0.142857 *  0.000000 *   0.00000    1.000000    
    205 Au    c    0.571429 *  0.142857 *  0.142857 *   0.00000    1.000000    
    206 Au    c    0.571429 *  0.142857 *  0.285714 *   0.00000    1.000000    
    207 Au    c    0.571429 *  0.142857 *  0.428571 *   0.00000    1.000000    
    208 Au    c    0.571429 *  0.142857 *  0.571429 *   0.00000    1.000000    
    209 Au    c    0.571429 *  0.142857 *  0.714286 *   0.00000    1.000000    
    210 Au    c    0.571429 *  0.142857 *  0.857143 *   0.00000    1.000000    
    211 Au    c    0.571429 *  0.285714 *  0.000000 *   0.00000    1.000000    
    212 Au    c    0.571429 *  0.285714 *  0.142857 *   0.00000    1.000000    
    213 Au    c    0.571429 *  0.285714 *  0.285714 *   0.00000    1.000000    
    214 Au    c    0.571429 *  0.285714 *  0.428571 *   0.00000    1.000000    
    215 Au    c    0.571429 *  0.285714 *  0.571429 *   0.00000    1.000000    
    216 Au    c    0.571429 *  0.285714 *  0.714286 *   0.00000    1.000000    
    217 Au    c    0.571429 *  0.285714 *  0.857143 *   0.00000    1.000000    
    218 Au    c    0.571429 *  0.428571 *  0.000000 *   0.00000    1.000000    
    219 Au    c    0.571429 *  0.428571 *  0.142857 *   0.00000    1.000000    
    220 Au    c    0.571429 *  0.428571 *  0.285714 *   0.00000    1.000000    
    221 Au    c    0.571429 *  0.428571 *  0.428571 *   0.00000    1.000000    
    222 Au    c    0.571429 *  0.428571 *  0.571429 *   0.00000    1.000000    
    223 Au    c    0.571429 *  0.428571 *  0.714286 *   0.00000    1.000000    
    224 Au    c    0.571429 *  0.428571 *  0.857143 *   0.00000    1.000000    
    225 Au    c    0.571429 *  0.571429 *  0.000000 *   0.00000    1.000000    
    226 Au    c    0.571429 *  0.571429 *  0.142857 *   0.00000    1.000000    
    227 Au    c    0.571429 *  0.571429 *  0.285714 *   0.00000    1.000000    
    228 Au    c    0.571429 *  0.571429 *  0.428571 *   0.00000    1.000000    
    229 Au    c    0.571429 *  0.571429 *  0.571429 *   0.00000    1.000000    
    230 Au    c    0.571429 *  0.571429 *  0.714286 *   0.00000    1.000000    
    231 Au    c    0.571429 *  0.571429 *  0.857143 *   0.00000    1.000000    
    232 Au    c    0.571429 *  0.714286 *  0.000000 *   0.00000    1.000000    
    233 Au    c    0.571429 *  0.714286 *  0.142857 *   0.00000    1.000000    
    234 Au    c    0.571429 *  0.714286 *  0.285714 *   0.00000    1.000000    
    235 Au    c    0.571429 *  0.714286 *  0.428571 *   0.00000    1.000000    
    236 Au    c    0.571429 *  0.714286 *  0.571429 *   0.00000    1.000000    
    237 Au    c    0.571429 *  0.714286 *  0.714286 *   0.00000    1.000000    
    238 Au    c    0.571429 *  0.714286 *  0.857143 *   0.00000    1.000000    
    239 Au    c    0.571429 *  0.857143 *  0.000000 *   0.00000    1.000000    
    240 Au    c    0.571429 *  0.857143 *  0.142857 *   0.00000    1.000000    
    241 Au    c    0.571429 *  0.857143 *  0.285714 *   0.00000    1.000000    
    242 Au    c    0.571429 *  0.857143 *  0.428571 *   0.00000    1.000000    
    243 Au    c    0.571429 *  0.857143 *  0.571429 *   0.00000    1.000000    
    244 Au    c    0.571429 *  0.857143 *  0.714286 *   0.00000    1.000000    
    245 Au    c    0.571429 *  0.857143 *  0.857143 *   0.00000    1.000000    
    246 Au    c    0.714286 *  0.000000 *  0.000000 *   0.00000    1.000000    
    247 Au    c    0.714286 *  0.000000 *  0.142857 *   0.00000    1.000000    
    248 Au    c    0.714286 *  0.000000 *  0.285714 *   0.00000    1.000000    
    249 Au    c    0.714286 *  0.000000 *  0.428571 *   0.00000    1.000000    
    250 Au    c    0.714286 *  0.000000 *  0.571429 *   0.00000    1.000000    
    251 Au    c    0.714286 *  0.000000 *  0.714286 *   0.00000    1.000000    
    252 Au    c    0.714286 *  0.000000 *  0.857143 *   0.00000    1.000000    
    253 Au    c    0.714286 *  0.142857 *  0.000000 *   0.00000    1.000000    
    254 Au    c    0.714286 *  0.142857 *  0.142857 *   0.00000    1.000000    
    255 Au    c    0.714286 *  0.142857 *  0.285714 *   0.00000    1.000000    
    256 Au    c    0.714286 *  0.142857 *  0.428571 *   0.00000    1.000000    
    257 Au    c    0.714286 *  0.142857 *  0.571429 *   0.00000    1.000000    
    258 Au    c    0.714286 *  0.142857 *  0.714286 *   0.00000    1.000000    
    259 Au    c    0.714286 *  0.142857 *  0.857143 *   0.00000    1.000000    
    260 Au    c    0.714286 *  0.285714 *  0.000000 *   0.00000    1.000000    
    261 Au    c    0.714286 *  0.285714 *  0.142857 *   0.00000    1.000000    
    262 Au    c    0.714286 *  0.285714 *  0.285714 *   0.00000    1.000000    
    263 Au    c    0.714286 *  0.285714 *  0.428571 *   0.00000    1.000000    
    264 Au    c    0.714286 *  0.285714 *  0.571429 *   0.00000    1.000000    
    265 Au    c    0.714286 *  0.285714 *  0.714286 *   0.00000    1.000000    
    266 Au    c    0.714286 *  0.285714 *  0.857143 *   0.00000    1.000000    
    267 Au    c    0.714286 *  0.428571 *  0.000000 *   0.00000    1.000000    
    268 Au    c    0.714286 *  0.428571 *  0.142857 *   0.00000    1.000000    
    269 Au    c    0.714286 *  0.428571 *  0.285714 *   0.00000    1.000000    
    270 Au    c    0.714286 *  0.428571 *  0.428571 *   0.00000    1.000000    
    271 Au    c    0.714286 *  0.428571 *  0.571429 *   0.00000    1.000000    
    272 Au    c    0.714286 *  0.428571 *  0.714286 *   0.00000    1.000000    
    273 Au    c    0.714286 *  0.428571 *  0.857143 *   0.00000    1.000000    
    274 Au    c    0.714286 *  0.571429 *  0.000000 *   0.00000    1.000000    
    275 Au    c    0.714286 *  0.571429 *  0.142857 *   0.00000    1.000000    
    276 Au    c    0.714286 *  0.571429 *  0.285714 *   0.00000    1.000000    
    277 Au    c    0.714286 *  0.571429 *  0.428571 *   0.00000    1.000000    
    278 Au    c    0.714286 *  0.571429 *  0.571429 *   0.00000    1.000000    
    279 Au    c    0.714286 *  0.571429 *  0.714286 *   0.00000    1.000000    
    280 Au    c    0.714286 *  0.571429 *  0.857143 *   0.00000    1.000000    
    281 Au    c    0.714286 *  0.714286 *  0.000000 *   0.00000    1.000000    
    282 Au    c    0.714286 *  0.714286 *  0.142857 *   0.00000    1.000000    
    283 Au    c    0.714286 *  0.714286 *  0.285714 *   0.00000    1.000000    
    284 Au    c    0.714286 *  0.714286 *  0.428571 *   0.00000    1.000000    
    285 Au    c    0.714286 *  0.714286 *  0.571429 *   0.00000    1.000000    
    286 Au    c    0.714286 *  0.714286 *  0.714286 *   0.00000    1.000000    
    287 Au    c    0.714286 *  0.714286 *  0.857143 *   0.00000    1.000000    
    288 Au    c    0.714286 *  0.857143 *  0.000000 *   0.00000    1.000000    
    289 Au    c    0.714286 *  0.857143 *  0.142857 *   0.00000    1.000000    
    290 Au    c    0.714286 *  0.857143 *  0.285714 *   0.00000    1.000000    
    291 Au    c    0.714286 *  0.857143 *  0.428571 *   0.00000    1.000000    
    292 Au    c    0.714286 *  0.857143 *  0.571429 *   0.00000    1.000000    
    293 Au    c    0.714286 *  0.857143 *  0.714286 *   0.00000    1.000000    
    294 Au    c    0.714286 *  0.857143 *  0.857143 *   0.00000    1.000000    
    295 Au    c    0.857143 *  0.000000 *  0.000000 *   0.00000    1.000000    
    296 Au    c    0.857143 *  0.000000 *  0.142857 *   0.00000    1.000000    
    297 Au    c    0.857143 *  0.000000 *  0.285714 *   0.00000    1.000000    
    298 Au    c    0.857143 *  0.000000 *  0.428571 *   0.00000    1.000000    
    299 Au    c    0.857143 *  0.000000 *  0.571429 *   0.00000    1.000000    
    300 Au    c    0.857143 *  0.000000 *  0.714286 *   0.00000    1.000000    
    301 Au    c    0.857143 *  0.000000 *  0.857143 *   0.00000    1.000000    
    302 Au    c    0.857143 *  0.142857 *  0.000000 *   0.00000    1.000000    
    303 Au    c    0.857143 *  0.142857 *  0.142857 *   0.00000    1.000000    
    304 Au    c    0.857143 *  0.142857 *  0.285714 *   0.00000    1.000000    
    305 Au    c    0.857143 *  0.142857 *  0.428571 *   0.00000    1.000000    
    306 Au    c    0.857143 *  0.142857 *  0.571429 *   0.00000    1.000000    
    307 Au    c    0.857143 *  0.142857 *  0.714286 *   0.00000    1.000000    
    308 Au    c    0.857143 *  0.142857 *  0.857143 *   0.00000    1.000000    
    309 Au    c    0.857143 *  0.285714 *  0.000000 *   0.00000    1.000000    
    310 Au    c    0.857143 *  0.285714 *  0.142857 *   0.00000    1.000000    
    311 Au    c    0.857143 *  0.285714 *  0.285714 *   0.00000    1.000000    
    312 Au    c    0.857143 *  0.285714 *  0.428571 *   0.00000    1.000000    
    313 Au    c    0.857143 *  0.285714 *  0.571429 *   0.00000    1.000000    
    314 Au    c    0.857143 *  0.285714 *  0.714286 *   0.00000    1.000000    
    315 Au    c    0.857143 *  0.285714 *  0.857143 *   0.00000    1.000000    
    316 Au    c    0.857143 *  0.428571 *  0.000000 *   0.00000    1.000000    
    317 Au    c    0.857143 *  0.428571 *  0.142857 *   0.00000    1.000000    
    318 Au    c    0.857143 *  0.428571 *  0.285714 *   0.00000    1.000000    
    319 Au    c    0.857143 *  0.428571 *  0.428571 *   0.00000    1.000000    
    320 Au    c    0.857143 *  0.428571 *  0.571429 *   0.00000    1.000000    
    321 Au    c    0.857143 *  0.428571 *  0.714286 *   0.00000    1.000000    
    322 Au    c    0.857143 *  0.428571 *  0.857143 *   0.00000    1.000000    
    323 Au    c    0.857143 *  0.571429 *  0.000000 *   0.00000    1.000000    
    324 Au    c    0.857143 *  0.571429 *  0.142857 *   0.00000    1.000000    
    325 Au    c    0.857143 *  0.571429 *  0.285714 *   0.00000    1.000000    
    326 Au    c    0.857143 *  0.571429 *  0.428571 *   0.00000    1.000000    
    327 Au    c    0.857143 *  0.571429 *  0.571429 *   0.00000    1.000000    
    328 Au    c    0.857143 *  0.571429 *  0.714286 *   0.00000    1.000000    
    329 Au    c    0.857143 *  0.571429 *  0.857143 *   0.00000    1.000000    
    330 Au    c    0.857143 *  0.714286 *  0.000000 *   0.00000    1.000000    
    331 Au    c    0.857143 *  0.714286 *  0.142857 *   0.00000    1.000000    
    332 Au    c    0.857143 *  0.714286 *  0.285714 *   0.00000    1.000000    
    333 Au    c    0.857143 *  0.714286 *  0.428571 *   0.00000    1.000000    
    334 Au    c    0.857143 *  0.714286 *  0.571429 *   0.00000    1.000000    
    335 Au    c    0.857143 *  0.714286 *  0.714286 *   0.00000    1.000000    
    336 Au    c    0.857143 *  0.714286 *  0.857143 *   0.00000    1.000000    
    337 Au    c    0.857143 *  0.857143 *  0.000000 *   0.00000    1.000000    
    338 Au    c    0.857143 *  0.857143 *  0.142857 *   0.00000    1.000000    
    339 Au    c    0.857143 *  0.857143 *  0.285714 *   0.00000    1.000000    
    340 Au    c    0.857143 *  0.857143 *  0.428571 *   0.00000    1.000000    
    341 Au    c    0.857143 *  0.857143 *  0.571429 *   0.00000    1.000000    
    342 Au    c    0.857143 *  0.857143 *  0.714286 *   0.00000    1.000000    
    343 Au    c    0.857143 *  0.857143 *  0.857143 *   0.00000    1.000000    
    344 Au    c    0.000000 *  0.071429 *  0.071429 *   0.00000    1.000000    
    345 Au    c    0.000000 *  0.071429 *  0.214286 *   0.00000    1.000000    
    346 Au    c    0.000000 *  0.071429 *  0.357143 *   0.00000    1.000000    
    347 Au    c    0.000000 *  0.071429 *  0.500000 *   0.00000    1.000000    
    348 Au    c    0.000000 *  0.071429 *  0.642857 *   0.00000    1.000000    
    349 Au    c    0.000000 *  0.071429 *  0.785714 *   0.00000    1.000000    
    350 Au    c    0.000000 *  0.071429 *  0.928571 *   0.00000    1.000000    
    351 Au    c    0.000000 *  0.214286 *  0.071429 *   0.00000    1.000000    
    352 Au    c    0.000000 *  0.214286 *  0.214286 *   0.00000    1.000000    
    353 Au    c    0.000000 *  0.214286 *  0.357143 *   0.00000    1.000000    
    354 Au    c    0.000000 *  0.214286 *  0.500000 *   0.00000    1.000000    
    355 Au    c    0.000000 *  0.214286 *  0.642857 *   0.00000    1.000000    
    356 Au    c    0.000000 *  0.214286 *  0.785714 *   0.00000    1.000000    
    357 Au    c    0.000000 *  0.214286 *  0.928571 *   0.00000    1.000000    
    358 Au    c    0.000000 *  0.357143 *  0.071429 *   0.00000    1.000000    
    359 Au    c    0.000000 *  0.357143 *  0.214286 *   0.00000    1.000000    
    360 Au    c    0.000000 *  0.357143 *  0.357143 *   0.00000    1.000000    
    361 Au    c    0.000000 *  0.357143 *  0.500000 *   0.00000    1.000000    
    362 Au    c    0.000000 *  0.357143 *  0.642857 *   0.00000    1.000000    
    363 Au    c    0.000000 *  0.357143 *  0.785714 *   0.00000    1.000000    
    364 Au    c    0.000000 *  0.357143 *  0.928571 *   0.00000    1.000000    
    365 Au    c    0.000000 *  0.500000 *  0.071429 *   0.00000    1.000000    
    366 Au    c    0.000000 *  0.500000 *  0.214286 *   0.00000    1.000000    
    367 Au    c    0.000000 *  0.500000 *  0.357143 *   0.00000    1.000000    
    368 Au    c    0.000000 *  0.500000 *  0.500000 *   0.00000    1.000000    
    369 Au    c    0.000000 *  0.500000 *  0.642857 *   0.00000    1.000000    
    370 Au    c    0.000000 *  0.500000 *  0.785714 *   0.00000    1.000000    
    371 Au    c    0.000000 *  0.500000 *  0.928571 *   0.00000    1.000000    
    372 Au    c    0.000000 *  0.642857 *  0.071429 *   0.00000    1.000000    
    373 Au    c    0.000000 *  0.642857 *  0.214286 *   0.00000    1.000000    
    374 Au    c    0.000000 *  0.642857 *  0.357143 *   0.00000    1.000000    
    375 Au    c    0.000000 *  0.642857 *  0.500000 *   0.00000    1.000000    
    376 Au    c    0.000000 *  0.642857 *  0.642857 *   0.00000    1.000000    
    377 Au    c    0.000000 *  0.642857 *  0.785714 *   0.00000    1.000000    
    378 Au    c    0.000000 *  0.642857 *  0.928571 *   0.00000    1.000000    
    379 Au    c    0.000000 *  0.785714 *  0.071429 *   0.00000    1.000000    
    380 Au    c    0.000000 *  0.785714 *  0.214286 *   0.00000    1.000000    
    381 Au    c    0.000000 *  0.785714 *  0.357143 *   0.00000    1.000000    
    382 Au    c    0.000000 *  0.785714 *  0.500000 *   0.00000    1.000000    
    383 Au    c    0.000000 *  0.785714 *  0.642857 *   0.00000    1.000000    
    384 Au    c    0.000000 *  0.785714 *  0.785714 *   0.00000    1.000000    
    385 Au    c    0.000000 *  0.785714 *  0.928571 *   0.00000    1.000000    
    386 Au    c    0.000000 *  0.928571 *  0.071429 *   0.00000    1.000000    
    387 Au    c    0.000000 *  0.928571 *  0.214286 *   0.00000    1.000000    
    388 Au    c    0.000000 *  0.928571 *  0.357143 *   0.00000    1.000000    
    389 Au    c    0.000000 *  0.928571 *  0.500000 *   0.00000    1.000000    
    390 Au    c    0.000000 *  0.928571 *  0.642857 *   0.00000    1.000000    
    391 Au    c    0.000000 *  0.928571 *  0.785714 *   0.00000    1.000000    
    392 Au    c    0.000000 *  0.928571 *  0.928571 *   0.00000    1.000000    
    393 Au    c    0.142857 *  0.071429 *  0.071429 *   0.00000    1.000000    
    394 Au    c    0.142857 *  0.071429 *  0.214286 *   0.00000    1.000000    
    395 Au    c    0.142857 *  0.071429 *  0.357143 *   0.00000    1.000000    
    396 Au    c    0.142857 *  0.071429 *  0.500000 *   0.00000    1.000000    
    397 Au    c    0.142857 *  0.071429 *  0.642857 *   0.00000    1.000000    
    398 Au    c    0.142857 *  0.071429 *  0.785714 *   0.00000    1.000000    
    399 Au    c    0.142857 *  0.071429 *  0.928571 *   0.00000    1.000000    
    400 Au    c    0.142857 *  0.214286 *  0.071429 *   0.00000    1.000000    
    401 Au    c    0.142857 *  0.214286 *  0.214286 *   0.00000    1.000000    
    402 Au    c    0.142857 *  0.214286 *  0.357143 *   0.00000    1.000000    
    403 Au    c    0.142857 *  0.214286 *  0.500000 *   0.00000    1.000000    
    404 Au    c    0.142857 *  0.214286 *  0.642857 *   0.00000    1.000000    
    405 Au    c    0.142857 *  0.214286 *  0.785714 *   0.00000    1.000000    
    406 Au    c    0.142857 *  0.214286 *  0.928571 *   0.00000    1.000000    
    407 Au    c    0.142857 *  0.357143 *  0.071429 *   0.00000    1.000000    
    408 Au    c    0.142857 *  0.357143 *  0.214286 *   0.00000    1.000000    
    409 Au    c    0.142857 *  0.357143 *  0.357143 *   0.00000    1.000000    
    410 Au    c    0.142857 *  0.357143 *  0.500000 *   0.00000    1.000000    
    411 Au    c    0.142857 *  0.357143 *  0.642857 *   0.00000    1.000000    
    412 Au    c    0.142857 *  0.357143 *  0.785714 *   0.00000    1.000000    
    413 Au    c    0.142857 *  0.357143 *  0.928571 *   0.00000    1.000000    
    414 Au    c    0.142857 *  0.500000 *  0.071429 *   0.00000    1.000000    
    415 Au    c    0.142857 *  0.500000 *  0.214286 *   0.00000    1.000000    
    416 Au    c    0.142857 *  0.500000 *  0.357143 *   0.00000    1.000000    
    417 Au    c    0.142857 *  0.500000 *  0.500000 *   0.00000    1.000000    
    418 Au    c    0.142857 *  0.500000 *  0.642857 *   0.00000    1.000000    
    419 Au    c    0.142857 *  0.500000 *  0.785714 *   0.00000    1.000000    
    420 Au    c    0.142857 *  0.500000 *  0.928571 *   0.00000    1.000000    
    421 Au    c    0.142857 *  0.642857 *  0.071429 *   0.00000    1.000000    
    422 Au    c    0.142857 *  0.642857 *  0.214286 *   0.00000    1.000000    
    423 Au    c    0.142857 *  0.642857 *  0.357143 *   0.00000    1.000000    
    424 Au    c    0.142857 *  0.642857 *  0.500000 *   0.00000    1.000000    
    425 Au    c    0.142857 *  0.642857 *  0.642857 *   0.00000    1.000000    
    426 Au    c    0.142857 *  0.642857 *  0.785714 *   0.00000    1.000000    
    427 Au    c    0.142857 *  0.642857 *  0.928571 *   0.00000    1.000000    
    428 Au    c    0.142857 *  0.785714 *  0.071429 *   0.00000    1.000000    
    429 Au    c    0.142857 *  0.785714 *  0.214286 *   0.00000    1.000000    
    430 Au    c    0.142857 *  0.785714 *  0.357143 *   0.00000    1.000000    
    431 Au    c    0.142857 *  0.785714 *  0.500000 *   0.00000    1.000000    
    432 Au    c    0.142857 *  0.785714 *  0.642857 *   0.00000    1.000000    
    433 Au    c    0.142857 *  0.785714 *  0.785714 *   0.00000    1.000000    
    434 Au    c    0.142857 *  0.785714 *  0.928571 *   0.00000    1.000000    
    435 Au    c    0.142857 *  0.928571 *  0.071429 *   0.00000    1.000000    
    436 Au    c    0.142857 *  0.928571 *  0.214286 *   0.00000    1.000000    
    437 Au    c    0.142857 *  0.928571 *  0.357143 *   0.00000    1.000000    
    438 Au    c    0.142857 *  0.928571 *  0.500000 *   0.00000    1.000000    
    439 Au    c    0.142857 *  0.928571 *  0.642857 *   0.00000    1.000000    
    440 Au    c    0.142857 *  0.928571 *  0.785714 *   0.00000    1.000000    
    441 Au    c    0.142857 *  0.928571 *  0.928571 *   0.00000    1.000000    
    442 Au    c    0.285714 *  0.071429 *  0.071429 *   0.00000    1.000000    
    443 Au    c    0.285714 *  0.071429 *  0.214286 *   0.00000    1.000000    
    444 Au    c    0.285714 *  0.071429 *  0.357143 *   0.00000    1.000000    
    445 Au    c    0.285714 *  0.071429 *  0.500000 *   0.00000    1.000000    
    446 Au    c    0.285714 *  0.071429 *  0.642857 *   0.00000    1.000000    
    447 Au    c    0.285714 *  0.071429 *  0.785714 *   0.00000    1.000000    
    448 Au    c    0.285714 *  0.071429 *  0.928571 *   0.00000    1.000000    
    449 Au    c    0.285714 *  0.214286 *  0.071429 *   0.00000    1.000000    
    450 Au    c    0.285714 *  0.214286 *  0.214286 *   0.00000    1.000000    
    451 Au    c    0.285714 *  0.214286 *  0.357143 *   0.00000    1.000000    
    452 Au    c    0.285714 *  0.214286 *  0.500000 *   0.00000    1.000000    
    453 Au    c    0.285714 *  0.214286 *  0.642857 *   0.00000    1.000000    
    454 Au    c    0.285714 *  0.214286 *  0.785714 *   0.00000    1.000000    
    455 Au    c    0.285714 *  0.214286 *  0.928571 *   0.00000    1.000000    
    456 Au    c    0.285714 *  0.357143 *  0.071429 *   0.00000    1.000000    
    457 Au    c    0.285714 *  0.357143 *  0.214286 *   0.00000    1.000000    
    458 Au    c    0.285714 *  0.357143 *  0.357143 *   0.00000    1.000000    
    459 Au    c    0.285714 *  0.357143 *  0.500000 *   0.00000    1.000000    
    460 Au    c    0.285714 *  0.357143 *  0.642857 *   0.00000    1.000000    
    461 Au    c    0.285714 *  0.357143 *  0.785714 *   0.00000    1.000000    
    462 Au    c    0.285714 *  0.357143 *  0.928571 *   0.00000    1.000000    
    463 Au    c    0.285714 *  0.500000 *  0.071429 *   0.00000    1.000000    
    464 Au    c    0.285714 *  0.500000 *  0.214286 *   0.00000    1.000000    
    465 Au    c    0.285714 *  0.500000 *  0.357143 *   0.00000    1.000000    
    466 Au    c    0.285714 *  0.500000 *  0.500000 *   0.00000    1.000000    
    467 Au    c    0.285714 *  0.500000 *  0.642857 *   0.00000    1.000000    
    468 Au    c    0.285714 *  0.500000 *  0.785714 *   0.00000    1.000000    
    469 Au    c    0.285714 *  0.500000 *  0.928571 *   0.00000    1.000000    
    470 Au    c    0.285714 *  0.642857 *  0.071429 *   0.00000    1.000000    
    471 Au    c    0.285714 *  0.642857 *  0.214286 *   0.00000    1.000000    
    472 Au    c    0.285714 *  0.642857 *  0.357143 *   0.00000    1.000000    
    473 Au    c    0.285714 *  0.642857 *  0.500000 *   0.00000    1.000000    
    474 Au    c    0.285714 *  0.642857 *  0.642857 *   0.00000    1.000000    
    475 Au    c    0.285714 *  0.642857 *  0.785714 *   0.00000    1.000000    
    476 Au    c    0.285714 *  0.642857 *  0.928571 *   0.00000    1.000000    
    477 Au    c    0.285714 *  0.785714 *  0.071429 *   0.00000    1.000000    
    478 Au    c    0.285714 *  0.785714 *  0.214286 *   0.00000    1.000000    
    479 Au    c    0.285714 *  0.785714 *  0.357143 *   0.00000    1.000000    
    480 Au    c    0.285714 *  0.785714 *  0.500000 *   0.00000    1.000000    
    481 Au    c    0.285714 *  0.785714 *  0.642857 *   0.00000    1.000000    
    482 Au    c    0.285714 *  0.785714 *  0.785714 *   0.00000    1.000000    
    483 Au    c    0.285714 *  0.785714 *  0.928571 *   0.00000    1.000000    
    484 Au    c    0.285714 *  0.928571 *  0.071429 *   0.00000    1.000000    
    485 Au    c    0.285714 *  0.928571 *  0.214286 *   0.00000    1.000000    
    486 Au    c    0.285714 *  0.928571 *  0.357143 *   0.00000    1.000000    
    487 Au    c    0.285714 *  0.928571 *  0.500000 *   0.00000    1.000000    
    488 Au    c    0.285714 *  0.928571 *  0.642857 *   0.00000    1.000000    
    489 Au    c    0.285714 *  0.928571 *  0.785714 *   0.00000    1.000000    
    490 Au    c    0.285714 *  0.928571 *  0.928571 *   0.00000    1.000000    
    491 Au    c    0.428571 *  0.071429 *  0.071429 *   0.00000    1.000000    
    492 Au    c    0.428571 *  0.071429 *  0.214286 *   0.00000    1.000000    
    493 Au    c    0.428571 *  0.071429 *  0.357143 *   0.00000    1.000000    
    494 Au    c    0.428571 *  0.071429 *  0.500000 *   0.00000    1.000000    
    495 Au    c    0.428571 *  0.071429 *  0.642857 *   0.00000    1.000000    
    496 Au    c    0.428571 *  0.071429 *  0.785714 *   0.00000    1.000000    
    497 Au    c    0.428571 *  0.071429 *  0.928571 *   0.00000    1.000000    
    498 Au    c    0.428571 *  0.214286 *  0.071429 *   0.00000    1.000000    
    499 Au    c    0.428571 *  0.214286 *  0.214286 *   0.00000    1.000000    
    500 Au    c    0.428571 *  0.214286 *  0.357143 *   0.00000    1.000000    
    501 Au    c    0.428571 *  0.214286 *  0.500000 *   0.00000    1.000000    
    502 Au    c    0.428571 *  0.214286 *  0.642857 *   0.00000    1.000000    
    503 Au    c    0.428571 *  0.214286 *  0.785714 *   0.00000    1.000000    
    504 Au    c    0.428571 *  0.214286 *  0.928571 *   0.00000    1.000000    
    505 Au    c    0.428571 *  0.357143 *  0.071429 *   0.00000    1.000000    
    506 Au    c    0.428571 *  0.357143 *  0.214286 *   0.00000    1.000000    
    507 Au    c    0.428571 *  0.357143 *  0.357143 *   0.00000    1.000000    
    508 Au    c    0.428571 *  0.357143 *  0.500000 *   0.00000    1.000000    
    509 Au    c    0.428571 *  0.357143 *  0.642857 *   0.00000    1.000000    
    510 Au    c    0.428571 *  0.357143 *  0.785714 *   0.00000    1.000000    
    511 Au    c    0.428571 *  0.357143 *  0.928571 *   0.00000    1.000000    
    512 Au    c    0.428571 *  0.500000 *  0.071429 *   0.00000    1.000000    
    513 Au    c    0.428571 *  0.500000 *  0.214286 *   0.00000    1.000000    
    514 Au    c    0.428571 *  0.500000 *  0.357143 *   0.00000    1.000000    
    515 Au    c    0.428571 *  0.500000 *  0.500000 *   0.00000    1.000000    
    516 Au    c    0.428571 *  0.500000 *  0.642857 *   0.00000    1.000000    
    517 Au    c    0.428571 *  0.500000 *  0.785714 *   0.00000    1.000000    
    518 Au    c    0.428571 *  0.500000 *  0.928571 *   0.00000    1.000000    
    519 Au    c    0.428571 *  0.642857 *  0.071429 *   0.00000    1.000000    
    520 Au    c    0.428571 *  0.642857 *  0.214286 *   0.00000    1.000000    
    521 Au    c    0.428571 *  0.642857 *  0.357143 *   0.00000    1.000000    
    522 Au    c    0.428571 *  0.642857 *  0.500000 *   0.00000    1.000000    
    523 Au    c    0.428571 *  0.642857 *  0.642857 *   0.00000    1.000000    
    524 Au    c    0.428571 *  0.642857 *  0.785714 *   0.00000    1.000000    
    525 Au    c    0.428571 *  0.642857 *  0.928571 *   0.00000    1.000000    
    526 Au    c    0.428571 *  0.785714 *  0.071429 *   0.00000    1.000000    
    527 Au    c    0.428571 *  0.785714 *  0.214286 *   0.00000    1.000000    
    528 Au    c    0.428571 *  0.785714 *  0.357143 *   0.00000    1.000000    
    529 Au    c    0.428571 *  0.785714 *  0.500000 *   0.00000    1.000000    
    530 Au    c    0.428571 *  0.785714 *  0.642857 *   0.00000    1.000000    
    531 Au    c    0.428571 *  0.785714 *  0.785714 *   0.00000    1.000000    
    532 Au    c    0.428571 *  0.785714 *  0.928571 *   0.00000    1.000000    
    533 Au    c    0.428571 *  0.928571 *  0.071429 *   0.00000    1.000000    
    534 Au    c    0.428571 *  0.928571 *  0.214286 *   0.00000    1.000000    
    535 Au    c    0.428571 *  0.928571 *  0.357143 *   0.00000    1.000000    
    536 Au    c    0.428571 *  0.928571 *  0.500000 *   0.00000    1.000000    
    537 Au    c    0.428571 *  0.928571 *  0.642857 *   0.00000    1.000000    
    538 Au    c    0.428571 *  0.928571 *  0.785714 *   0.00000    1.000000    
    539 Au    c    0.428571 *  0.928571 *  0.928571 *   0.00000    1.000000    
    540 Au    c    0.571429 *  0.071429 *  0.071429 *   0.00000    1.000000    
    541 Au    c    0.571429 *  0.071429 *  0.214286 *   0.00000    1.000000    
    542 Au    c    0.571429 *  0.071429 *  0.357143 *   0.00000    1.000000    
    543 Au    c    0.571429 *  0.071429 *  0.500000 *   0.00000    1.000000    
    544 Au    c    0.571429 *  0.071429 *  0.642857 *   0.00000    1.000000    
    545 Au    c    0.571429 *  0.071429 *  0.785714 *   0.00000    1.000000    
    546 Au    c    0.571429 *  0.071429 *  0.928571 *   0.00000    1.000000    
    547 Au    c    0.571429 *  0.214286 *  0.071429 *   0.00000    1.000000    
    548 Au    c    0.571429 *  0.214286 *  0.214286 *   0.00000    1.000000    
    549 Au    c    0.571429 *  0.214286 *  0.357143 *   0.00000    1.000000    
    550 Au    c    0.571429 *  0.214286 *  0.500000 *   0.00000    1.000000    
    551 Au    c    0.571429 *  0.214286 *  0.642857 *   0.00000    1.000000    
    552 Au    c    0.571429 *  0.214286 *  0.785714 *   0.00000    1.000000    
    553 Au    c    0.571429 *  0.214286 *  0.928571 *   0.00000    1.000000    
    554 Au    c    0.571429 *  0.357143 *  0.071429 *   0.00000    1.000000    
    555 Au    c    0.571429 *  0.357143 *  0.214286 *   0.00000    1.000000    
    556 Au    c    0.571429 *  0.357143 *  0.357143 *   0.00000    1.000000    
    557 Au    c    0.571429 *  0.357143 *  0.500000 *   0.00000    1.000000    
    558 Au    c    0.571429 *  0.357143 *  0.642857 *   0.00000    1.000000    
    559 Au    c    0.571429 *  0.357143 *  0.785714 *   0.00000    1.000000    
    560 Au    c    0.571429 *  0.357143 *  0.928571 *   0.00000    1.000000    
    561 Au    c    0.571429 *  0.500000 *  0.071429 *   0.00000    1.000000    
    562 Au    c    0.571429 *  0.500000 *  0.214286 *   0.00000    1.000000    
    563 Au    c    0.571429 *  0.500000 *  0.357143 *   0.00000    1.000000    
    564 Au    c    0.571429 *  0.500000 *  0.500000 *   0.00000    1.000000    
    565 Au    c    0.571429 *  0.500000 *  0.642857 *   0.00000    1.000000    
    566 Au    c    0.571429 *  0.500000 *  0.785714 *   0.00000    1.000000    
    567 Au    c    0.571429 *  0.500000 *  0.928571 *   0.00000    1.000000    
    568 Au    c    0.571429 *  0.642857 *  0.071429 *   0.00000    1.000000    
    569 Au    c    0.571429 *  0.642857 *  0.214286 *   0.00000    1.000000    
    570 Au    c    0.571429 *  0.642857 *  0.357143 *   0.00000    1.000000    
    571 Au    c    0.571429 *  0.642857 *  0.500000 *   0.00000    1.000000    
    572 Au    c    0.571429 *  0.642857 *  0.642857 *   0.00000    1.000000    
    573 Au    c    0.571429 *  0.642857 *  0.785714 *   0.00000    1.000000    
    574 Au    c    0.571429 *  0.642857 *  0.928571 *   0.00000    1.000000    
    575 Au    c    0.571429 *  0.785714 *  0.071429 *   0.00000    1.000000    
    576 Au    c    0.571429 *  0.785714 *  0.214286 *   0.00000    1.000000    
    577 Au    c    0.571429 *  0.785714 *  0.357143 *   0.00000    1.000000    
    578 Au    c    0.571429 *  0.785714 *  0.500000 *   0.00000    1.000000    
    579 Au    c    0.571429 *  0.785714 *  0.642857 *   0.00000    1.000000    
    580 Au    c    0.571429 *  0.785714 *  0.785714 *   0.00000    1.000000    
    581 Au    c    0.571429 *  0.785714 *  0.928571 *   0.00000    1.000000    
    582 Au    c    0.571429 *  0.928571 *  0.071429 *   0.00000    1.000000    
    583 Au    c    0.571429 *  0.928571 *  0.214286 *   0.00000    1.000000    
    584 Au    c    0.571429 *  0.928571 *  0.357143 *   0.00000    1.000000    
    585 Au    c    0.571429 *  0.928571 *  0.500000 *   0.00000    1.000000    
    586 Au    c    0.571429 *  0.928571 *  0.642857 *   0.00000    1.000000    
    587 Au    c    0.571429 *  0.928571 *  0.785714 *   0.00000    1.000000    
    588 Au    c    0.571429 *  0.928571 *  0.928571 *   0.00000    1.000000    
    589 Au    c    0.714286 *  0.071429 *  0.071429 *   0.00000    1.000000    
    590 Au    c    0.714286 *  0.071429 *  0.214286 *   0.00000    1.000000    
    591 Au    c    0.714286 *  0.071429 *  0.357143 *   0.00000    1.000000    
    592 Au    c    0.714286 *  0.071429 *  0.500000 *   0.00000    1.000000    
    593 Au    c    0.714286 *  0.071429 *  0.642857 *   0.00000    1.000000    
    594 Au    c    0.714286 *  0.071429 *  0.785714 *   0.00000    1.000000    
    595 Au    c    0.714286 *  0.071429 *  0.928571 *   0.00000    1.000000    
    596 Au    c    0.714286 *  0.214286 *  0.071429 *   0.00000    1.000000    
    597 Au    c    0.714286 *  0.214286 *  0.214286 *   0.00000    1.000000    
    598 Au    c    0.714286 *  0.214286 *  0.357143 *   0.00000    1.000000    
    599 Au    c    0.714286 *  0.214286 *  0.500000 *   0.00000    1.000000    
    600 Au    c    0.714286 *  0.214286 *  0.642857 *   0.00000    1.000000    
    601 Au    c    0.714286 *  0.214286 *  0.785714 *   0.00000    1.000000    
    602 Au    c    0.714286 *  0.214286 *  0.928571 *   0.00000    1.000000    
    603 Au    c    0.714286 *  0.357143 *  0.071429 *   0.00000    1.000000    
    604 Au    c    0.714286 *  0.357143 *  0.214286 *   0.00000    1.000000    
    605 Au    c    0.714286 *  0.357143 *  0.357143 *   0.00000    1.000000    
    606 Au    c    0.714286 *  0.357143 *  0.500000 *   0.00000    1.000000    
    607 Au    c    0.714286 *  0.357143 *  0.642857 *   0.00000    1.000000    
    608 Au    c    0.714286 *  0.357143 *  0.785714 *   0.00000    1.000000    
    609 Au    c    0.714286 *  0.357143 *  0.928571 *   0.00000    1.000000    
    610 Au    c    0.714286 *  0.500000 *  0.071429 *   0.00000    1.000000    
    611 Au    c    0.714286 *  0.500000 *  0.214286 *   0.00000    1.000000    
    612 Au    c    0.714286 *  0.500000 *  0.357143 *   0.00000    1.000000    
    613 Au    c    0.714286 *  0.500000 *  0.500000 *   0.00000    1.000000    
    614 Au    c    0.714286 *  0.500000 *  0.642857 *   0.00000    1.000000    
    615 Au    c    0.714286 *  0.500000 *  0.785714 *   0.00000    1.000000    
    616 Au    c    0.714286 *  0.500000 *  0.928571 *   0.00000    1.000000    
    617 Au    c    0.714286 *  0.642857 *  0.071429 *   0.00000    1.000000    
    618 Au    c    0.714286 *  0.642857 *  0.214286 *   0.00000    1.000000    
    619 Au    c    0.714286 *  0.642857 *  0.357143 *   0.00000    1.000000    
    620 Au    c    0.714286 *  0.642857 *  0.500000 *   0.00000    1.000000    
    621 Au    c    0.714286 *  0.642857 *  0.642857 *   0.00000    1.000000    
    622 Au    c    0.714286 *  0.642857 *  0.785714 *   0.00000    1.000000    
    623 Au    c    0.714286 *  0.642857 *  0.928571 *   0.00000    1.000000    
    624 Au    c    0.714286 *  0.785714 *  0.071429 *   0.00000    1.000000    
    625 Au    c    0.714286 *  0.785714 *  0.214286 *   0.00000    1.000000    
    626 Au    c    0.714286 *  0.785714 *  0.357143 *   0.00000    1.000000    
    627 Au    c    0.714286 *  0.785714 *  0.500000 *   0.00000    1.000000    
    628 Au    c    0.714286 *  0.785714 *  0.642857 *   0.00000    1.000000    
    629 Au    c    0.714286 *  0.785714 *  0.785714 *   0.00000    1.000000    
    630 Au    c    0.714286 *  0.785714 *  0.928571 *   0.00000    1.000000    
    631 Au    c    0.714286 *  0.928571 *  0.071429 *   0.00000    1.000000    
    632 Au    c    0.714286 *  0.928571 *  0.214286 *   0.00000    1.000000    
    633 Au    c    0.714286 *  0.928571 *  0.357143 *   0.00000    1.000000    
    634 Au    c    0.714286 *  0.928571 *  0.500000 *   0.00000    1.000000    
    635 Au    c    0.714286 *  0.928571 *  0.642857 *   0.00000    1.000000    
    636 Au    c    0.714286 *  0.928571 *  0.785714 *   0.00000    1.000000    
    637 Au    c    0.714286 *  0.928571 *  0.928571 *   0.00000    1.000000    
    638 Au    c    0.857143 *  0.071429 *  0.071429 *   0.00000    1.000000    
    639 Au    c    0.857143 *  0.071429 *  0.214286 *   0.00000    1.000000    
    640 Au    c    0.857143 *  0.071429 *  0.357143 *   0.00000    1.000000    
    641 Au    c    0.857143 *  0.071429 *  0.500000 *   0.00000    1.000000    
    642 Au    c    0.857143 *  0.071429 *  0.642857 *   0.00000    1.000000    
    643 Au    c    0.857143 *  0.071429 *  0.785714 *   0.00000    1.000000    
    644 Au    c    0.857143 *  0.071429 *  0.928571 *   0.00000    1.000000    
    645 Au    c    0.857143 *  0.214286 *  0.071429 *   0.00000    1.000000    
    646 Au    c    0.857143 *  0.214286 *  0.214286 *   0.00000    1.000000    
    647 Au    c    0.857143 *  0.214286 *  0.357143 *   0.00000    1.000000    
    648 Au    c    0.857143 *  0.214286 *  0.500000 *   0.00000    1.000000    
    649 Au    c    0.857143 *  0.214286 *  0.642857 *   0.00000    1.000000    
    650 Au    c    0.857143 *  0.214286 *  0.785714 *   0.00000    1.000000    
    651 Au    c    0.857143 *  0.214286 *  0.928571 *   0.00000    1.000000    
    652 Au    c    0.857143 *  0.357143 *  0.071429 *   0.00000    1.000000    
    653 Au    c    0.857143 *  0.357143 *  0.214286 *   0.00000    1.000000    
    654 Au    c    0.857143 *  0.357143 *  0.357143 *   0.00000    1.000000    
    655 Au    c    0.857143 *  0.357143 *  0.500000 *   0.00000    1.000000    
    656 Au    c    0.857143 *  0.357143 *  0.642857 *   0.00000    1.000000    
    657 Au    c    0.857143 *  0.357143 *  0.785714 *   0.00000    1.000000    
    658 Au    c    0.857143 *  0.357143 *  0.928571 *   0.00000    1.000000    
    659 Au    c    0.857143 *  0.500000 *  0.071429 *   0.00000    1.000000    
    660 Au    c    0.857143 *  0.500000 *  0.214286 *   0.00000    1.000000    
    661 Au    c    0.857143 *  0.500000 *  0.357143 *   0.00000    1.000000    
    662 Au    c    0.857143 *  0.500000 *  0.500000 *   0.00000    1.000000    
    663 Au    c    0.857143 *  0.500000 *  0.642857 *   0.00000    1.000000    
    664 Au    c    0.857143 *  0.500000 *  0.785714 *   0.00000    1.000000    
    665 Au    c    0.857143 *  0.500000 *  0.928571 *   0.00000    1.000000    
    666 Au    c    0.857143 *  0.642857 *  0.071429 *   0.00000    1.000000    
    667 Au    c    0.857143 *  0.642857 *  0.214286 *   0.00000    1.000000    
    668 Au    c    0.857143 *  0.642857 *  0.357143 *   0.00000    1.000000    
    669 Au    c    0.857143 *  0.642857 *  0.500000 *   0.00000    1.000000    
    670 Au    c    0.857143 *  0.642857 *  0.642857 *   0.00000    1.000000    
    671 Au    c    0.857143 *  0.642857 *  0.785714 *   0.00000    1.000000    
    672 Au    c    0.857143 *  0.642857 *  0.928571 *   0.00000    1.000000    
    673 Au    c    0.857143 *  0.785714 *  0.071429 *   0.00000    1.000000    
    674 Au    c    0.857143 *  0.785714 *  0.214286 *   0.00000    1.000000    
    675 Au    c    0.857143 *  0.785714 *  0.357143 *   0.00000    1.000000    
    676 Au    c    0.857143 *  0.785714 *  0.500000 *   0.00000    1.000000    
    677 Au    c    0.857143 *  0.785714 *  0.642857 *   0.00000    1.000000    
    678 Au    c    0.857143 *  0.785714 *  0.785714 *   0.00000    1.000000    
    679 Au    c    0.857143 *  0.785714 *  0.928571 *   0.00000    1.000000    
    680 Au    c    0.857143 *  0.928571 *  0.071429 *   0.00000    1.000000    
    681 Au    c    0.857143 *  0.928571 *  0.214286 *   0.00000    1.000000    
    682 Au    c    0.857143 *  0.928571 *  0.357143 *   0.00000    1.000000    
    683 Au    c    0.857143 *  0.928571 *  0.500000 *   0.00000    1.000000    
    684 Au    c    0.857143 *  0.928571 *  0.642857 *   0.00000    1.000000    
    685 Au    c    0.857143 *  0.928571 *  0.785714 *   0.00000    1.000000    
    686 Au    c    0.857143 *  0.928571 *  0.928571 *   0.00000    1.000000    
    687 Au    c    0.071429 *  0.000000 *  0.214286 *   0.00000    1.000000    
    688 Au    c    0.071429 *  0.000000 *  0.357143 *   0.00000    1.000000    
    689 Au    c    0.071429 *  0.000000 *  0.500000 *   0.00000    1.000000    
    690 Au    c    0.071429 *  0.000000 *  0.642857 *   0.00000    1.000000    
    691 Au    c    0.071429 *  0.000000 *  0.785714 *   0.00000    1.000000    
    692 Au    c    0.071429 *  0.000000 *  0.928571 *   0.00000    1.000000    
    693 Au    c    0.071429 *  0.142857 *  0.071429 *   0.00000    1.000000    
    694 Au    c    0.071429 *  0.142857 *  0.214286 *   0.00000    1.000000    
    695 Au    c    0.071429 *  0.142857 *  0.357143 *   0.00000    1.000000    
    696 Au    c    0.071429 *  0.142857 *  0.500000 *   0.00000    1.000000    
    697 Au    c    0.071429 *  0.142857 *  0.642857 *   0.00000    1.000000    
    698 Au    c    0.071429 *  0.142857 *  0.785714 *   0.00000    1.000000    
    699 Au    c    0.071429 *  0.142857 *  0.928571 *   0.00000    1.000000    
    700 Au    c    0.071429 *  0.285714 *  0.071429 *   0.00000    1.000000    
    701 Au    c    0.071429 *  0.285714 *  0.214286 *   0.00000    1.000000    
    702 Au    c    0.071429 *  0.285714 *  0.357143 *   0.00000    1.000000    
    703 Au    c    0.071429 *  0.285714 *  0.500000 *   0.00000    1.000000    
    704 Au    c    0.071429 *  0.285714 *  0.642857 *   0.00000    1.000000    
    705 Au    c    0.071429 *  0.285714 *  0.785714 *   0.00000    1.000000    
    706 Au    c    0.071429 *  0.285714 *  0.928571 *   0.00000    1.000000    
    707 Au    c    0.071429 *  0.428571 *  0.071429 *   0.00000    1.000000    
    708 Au    c    0.071429 *  0.428571 *  0.214286 *   0.00000    1.000000    
    709 Au    c    0.071429 *  0.428571 *  0.357143 *   0.00000    1.000000    
    710 Au    c    0.071429 *  0.428571 *  0.500000 *   0.00000    1.000000    
    711 Au    c    0.071429 *  0.428571 *  0.642857 *   0.00000    1.000000    
    712 Au    c    0.071429 *  0.428571 *  0.785714 *   0.00000    1.000000    
    713 Au    c    0.071429 *  0.428571 *  0.928571 *   0.00000    1.000000    
    714 Au    c    0.071429 *  0.571429 *  0.071429 *   0.00000    1.000000    
    715 Au    c    0.071429 *  0.571429 *  0.214286 *   0.00000    1.000000    
    716 Au    c    0.071429 *  0.571429 *  0.357143 *   0.00000    1.000000    
    717 Au    c    0.071429 *  0.571429 *  0.500000 *   0.00000    1.000000    
    718 Au    c    0.071429 *  0.571429 *  0.642857 *   0.00000    1.000000    
    719 Au    c    0.071429 *  0.571429 *  0.785714 *   0.00000    1.000000    
    720 Au    c    0.071429 *  0.571429 *  0.928571 *   0.00000    1.000000    
    721 Au    c    0.071429 *  0.714286 *  0.071429 *   0.00000    1.000000    
    722 Au    c    0.071429 *  0.714286 *  0.214286 *   0.00000    1.000000    
    723 Au    c    0.071429 *  0.714286 *  0.357143 *   0.00000    1.000000    
    724 Au    c    0.071429 *  0.714286 *  0.500000 *   0.00000    1.000000    
    725 Au    c    0.071429 *  0.714286 *  0.642857 *   0.00000    1.000000    
    726 Au    c    0.071429 *  0.714286 *  0.785714 *   0.00000    1.000000    
    727 Au    c    0.071429 *  0.714286 *  0.928571 *   0.00000    1.000000    
    728 Au    c    0.071429 *  0.857143 *  0.071429 *   0.00000    1.000000    
    729 Au    c    0.071429 *  0.857143 *  0.214286 *   0.00000    1.000000    
    730 Au    c    0.071429 *  0.857143 *  0.357143 *   0.00000    1.000000    
    731 Au    c    0.071429 *  0.857143 *  0.500000 *   0.00000    1.000000    
    732 Au    c    0.071429 *  0.857143 *  0.642857 *   0.00000    1.000000    
    733 Au    c    0.071429 *  0.857143 *  0.785714 *   0.00000    1.000000    
    734 Au    c    0.071429 *  0.857143 *  0.928571 *   0.00000    1.000000    
    735 Au    c    0.214286 *  0.000000 *  0.071429 *   0.00000    1.000000    
    736 Au    c    0.214286 *  0.000000 *  0.214286 *   0.00000    1.000000    
    737 Au    c    0.214286 *  0.000000 *  0.357143 *   0.00000    1.000000    
    738 Au    c    0.214286 *  0.000000 *  0.500000 *   0.00000    1.000000    
    739 Au    c    0.214286 *  0.000000 *  0.642857 *   0.00000    1.000000    
    740 Au    c    0.214286 *  0.000000 *  0.785714 *   0.00000    1.000000    
    741 Au    c    0.214286 *  0.000000 *  0.928571 *   0.00000    1.000000    
    742 Au    c    0.214286 *  0.142857 *  0.071429 *   0.00000    1.000000    
    743 Au    c    0.214286 *  0.142857 *  0.214286 *   0.00000    1.000000    
    744 Au    c    0.214286 *  0.142857 *  0.357143 *   0.00000    1.000000    
    745 Au    c    0.214286 *  0.142857 *  0.500000 *   0.00000    1.000000    
    746 Au    c    0.214286 *  0.142857 *  0.642857 *   0.00000    1.000000    
    747 Au    c    0.214286 *  0.142857 *  0.785714 *   0.00000    1.000000    
    748 Au    c    0.214286 *  0.142857 *  0.928571 *   0.00000    1.000000    
    749 Au    c    0.214286 *  0.285714 *  0.071429 *   0.00000    1.000000    
    750 Au    c    0.214286 *  0.285714 *  0.214286 *   0.00000    1.000000    
    751 Au    c    0.214286 *  0.285714 *  0.357143 *   0.00000    1.000000    
    752 Au    c    0.214286 *  0.285714 *  0.500000 *   0.00000    1.000000    
    753 Au    c    0.214286 *  0.285714 *  0.642857 *   0.00000    1.000000    
    754 Au    c    0.214286 *  0.285714 *  0.785714 *   0.00000    1.000000    
    755 Au    c    0.214286 *  0.285714 *  0.928571 *   0.00000    1.000000    
    756 Au    c    0.214286 *  0.428571 *  0.071429 *   0.00000    1.000000    
    757 Au    c    0.214286 *  0.428571 *  0.214286 *   0.00000    1.000000    
    758 Au    c    0.214286 *  0.428571 *  0.357143 *   0.00000    1.000000    
    759 Au    c    0.214286 *  0.428571 *  0.500000 *   0.00000    1.000000    
    760 Au    c    0.214286 *  0.428571 *  0.642857 *   0.00000    1.000000    
    761 Au    c    0.214286 *  0.428571 *  0.785714 *   0.00000    1.000000    
    762 Au    c    0.214286 *  0.428571 *  0.928571 *   0.00000    1.000000    
    763 Au    c    0.214286 *  0.571429 *  0.071429 *   0.00000    1.000000    
    764 Au    c    0.214286 *  0.571429 *  0.214286 *   0.00000    1.000000    
    765 Au    c    0.214286 *  0.571429 *  0.357143 *   0.00000    1.000000    
    766 Au    c    0.214286 *  0.571429 *  0.500000 *   0.00000    1.000000    
    767 Au    c    0.214286 *  0.571429 *  0.642857 *   0.00000    1.000000    
    768 Au    c    0.214286 *  0.571429 *  0.785714 *   0.00000    1.000000    
    769 Au    c    0.214286 *  0.571429 *  0.928571 *   0.00000    1.000000    
    770 Au    c    0.214286 *  0.714286 *  0.071429 *   0.00000    1.000000    
    771 Au    c    0.214286 *  0.714286 *  0.214286 *   0.00000    1.000000    
    772 Au    c    0.214286 *  0.714286 *  0.357143 *   0.00000    1.000000    
    773 Au    c    0.214286 *  0.714286 *  0.500000 *   0.00000    1.000000    
    774 Au    c    0.214286 *  0.714286 *  0.642857 *   0.00000    1.000000    
    775 Au    c    0.214286 *  0.714286 *  0.785714 *   0.00000    1.000000    
    776 Au    c    0.214286 *  0.714286 *  0.928571 *   0.00000    1.000000    
    777 Au    c    0.214286 *  0.857143 *  0.071429 *   0.00000    1.000000    
    778 Au    c    0.214286 *  0.857143 *  0.214286 *   0.00000    1.000000    
    779 Au    c    0.214286 *  0.857143 *  0.357143 *   0.00000    1.000000    
    780 Au    c    0.214286 *  0.857143 *  0.500000 *   0.00000    1.000000    
    781 Au    c    0.214286 *  0.857143 *  0.642857 *   0.00000    1.000000    
    782 Au    c    0.214286 *  0.857143 *  0.785714 *   0.00000    1.000000    
    783 Au    c    0.214286 *  0.857143 *  0.928571 *   0.00000    1.000000    
    784 Au    c    0.357143 *  0.000000 *  0.071429 *   0.00000    1.000000    
    785 Au    c    0.357143 *  0.000000 *  0.214286 *   0.00000    1.000000    
    786 Au    c    0.357143 *  0.000000 *  0.357143 *   0.00000    1.000000    
    787 Au    c    0.357143 *  0.000000 *  0.500000 *   0.00000    1.000000    
    788 Au    c    0.357143 *  0.000000 *  0.642857 *   0.00000    1.000000    
    789 Au    c    0.357143 *  0.000000 *  0.785714 *   0.00000    1.000000    
    790 Au    c    0.357143 *  0.000000 *  0.928571 *   0.00000    1.000000    
    791 Au    c    0.357143 *  0.142857 *  0.071429 *   0.00000    1.000000    
    792 Au    c    0.357143 *  0.142857 *  0.214286 *   0.00000    1.000000    
    793 Au    c    0.357143 *  0.142857 *  0.357143 *   0.00000    1.000000    
    794 Au    c    0.357143 *  0.142857 *  0.500000 *   0.00000    1.000000    
    795 Au    c    0.357143 *  0.142857 *  0.642857 *   0.00000    1.000000    
    796 Au    c    0.357143 *  0.142857 *  0.785714 *   0.00000    1.000000    
    797 Au    c    0.357143 *  0.142857 *  0.928571 *   0.00000    1.000000    
    798 Au    c    0.357143 *  0.285714 *  0.071429 *   0.00000    1.000000    
    799 Au    c    0.357143 *  0.285714 *  0.214286 *   0.00000    1.000000    
    800 Au    c    0.357143 *  0.285714 *  0.357143 *   0.00000    1.000000    
    801 Au    c    0.357143 *  0.285714 *  0.500000 *   0.00000    1.000000    
    802 Au    c    0.357143 *  0.285714 *  0.642857 *   0.00000    1.000000    
    803 Au    c    0.357143 *  0.285714 *  0.785714 *   0.00000    1.000000    
    804 Au    c    0.357143 *  0.285714 *  0.928571 *   0.00000    1.000000    
    805 Au    c    0.357143 *  0.428571 *  0.071429 *   0.00000    1.000000    
    806 Au    c    0.357143 *  0.428571 *  0.214286 *   0.00000    1.000000    
    807 Au    c    0.357143 *  0.428571 *  0.357143 *   0.00000    1.000000    
    808 Au    c    0.357143 *  0.428571 *  0.500000 *   0.00000    1.000000    
    809 Au    c    0.357143 *  0.428571 *  0.642857 *   0.00000    1.000000    
    810 Au    c    0.357143 *  0.428571 *  0.785714 *   0.00000    1.000000    
    811 Au    c    0.357143 *  0.428571 *  0.928571 *   0.00000    1.000000    
    812 Au    c    0.357143 *  0.571429 *  0.071429 *   0.00000    1.000000    
    813 Au    c    0.357143 *  0.571429 *  0.214286 *   0.00000    1.000000    
    814 Au    c    0.357143 *  0.571429 *  0.357143 *   0.00000    1.000000    
    815 Au    c    0.357143 *  0.571429 *  0.500000 *   0.00000    1.000000    
    816 Au    c    0.357143 *  0.571429 *  0.642857 *   0.00000    1.000000    
    817 Au    c    0.357143 *  0.571429 *  0.785714 *   0.00000    1.000000    
    818 Au    c    0.357143 *  0.571429 *  0.928571 *   0.00000    1.000000    
    819 Au    c    0.357143 *  0.714286 *  0.071429 *   0.00000    1.000000    
    820 Au    c    0.357143 *  0.714286 *  0.214286 *   0.00000    1.000000    
    821 Au    c    0.357143 *  0.714286 *  0.357143 *   0.00000    1.000000    
    822 Au    c    0.357143 *  0.714286 *  0.500000 *   0.00000    1.000000    
    823 Au    c    0.357143 *  0.714286 *  0.642857 *   0.00000    1.000000    
    824 Au    c    0.357143 *  0.714286 *  0.785714 *   0.00000    1.000000    
    825 Au    c    0.357143 *  0.714286 *  0.928571 *   0.00000    1.000000    
    826 Au    c    0.357143 *  0.857143 *  0.071429 *   0.00000    1.000000    
    827 Au    c    0.357143 *  0.857143 *  0.214286 *   0.00000    1.000000    
    828 Au    c    0.357143 *  0.857143 *  0.357143 *   0.00000    1.000000    
    829 Au    c    0.357143 *  0.857143 *  0.500000 *   0.00000    1.000000    
    830 Au    c    0.357143 *  0.857143 *  0.642857 *   0.00000    1.000000    
    831 Au    c    0.357143 *  0.857143 *  0.785714 *   0.00000    1.000000    
    832 Au    c    0.357143 *  0.857143 *  0.928571 *   0.00000    1.000000    
    833 Au    c    0.500000 *  0.000000 *  0.071429 *   0.00000    1.000000    
    834 Au    c    0.500000 *  0.000000 *  0.214286 *   0.00000    1.000000    
    835 Au    c    0.500000 *  0.000000 *  0.357143 *   0.00000    1.000000    
    836 Au    c    0.500000 *  0.000000 *  0.500000 *   0.00000    1.000000    
    837 Au    c    0.500000 *  0.000000 *  0.642857 *   0.00000    1.000000    
    838 Au    c    0.500000 *  0.000000 *  0.785714 *   0.00000    1.000000    
    839 Au    c    0.500000 *  0.000000 *  0.928571 *   0.00000    1.000000    
    840 Au    c    0.500000 *  0.142857 *  0.071429 *   0.00000    1.000000    
    841 Au    c    0.500000 *  0.142857 *  0.214286 *   0.00000    1.000000    
    842 Au    c    0.500000 *  0.142857 *  0.357143 *   0.00000    1.000000    
    843 Au    c    0.500000 *  0.142857 *  0.500000 *   0.00000    1.000000    
    844 Au    c    0.500000 *  0.142857 *  0.642857 *   0.00000    1.000000    
    845 Au    c    0.500000 *  0.142857 *  0.785714 *   0.00000    1.000000    
    846 Au    c    0.500000 *  0.142857 *  0.928571 *   0.00000    1.000000    
    847 Au    c    0.500000 *  0.285714 *  0.071429 *   0.00000    1.000000    
    848 Au    c    0.500000 *  0.285714 *  0.214286 *   0.00000    1.000000    
    849 Au    c    0.500000 *  0.285714 *  0.357143 *   0.00000    1.000000    
    850 Au    c    0.500000 *  0.285714 *  0.500000 *   0.00000    1.000000    
    851 Au    c    0.500000 *  0.285714 *  0.642857 *   0.00000    1.000000    
    852 Au    c    0.500000 *  0.285714 *  0.785714 *   0.00000    1.000000    
    853 Au    c    0.500000 *  0.285714 *  0.928571 *   0.00000    1.000000    
    854 Au    c    0.500000 *  0.428571 *  0.071429 *   0.00000    1.000000    
    855 Au    c    0.500000 *  0.428571 *  0.214286 *   0.00000    1.000000    
    856 Au    c    0.500000 *  0.428571 *  0.357143 *   0.00000    1.000000    
    857 Au    c    0.500000 *  0.428571 *  0.500000 *   0.00000    1.000000    
    858 Au    c    0.500000 *  0.428571 *  0.642857 *   0.00000    1.000000    
    859 Au    c    0.500000 *  0.428571 *  0.785714 *   0.00000    1.000000    
    860 Au    c    0.500000 *  0.428571 *  0.928571 *   0.00000    1.000000    
    861 Au    c    0.500000 *  0.571429 *  0.071429 *   0.00000    1.000000    
    862 Au    c    0.500000 *  0.571429 *  0.214286 *   0.00000    1.000000    
    863 Au    c    0.500000 *  0.571429 *  0.357143 *   0.00000    1.000000    
    864 Au    c    0.500000 *  0.571429 *  0.500000 *   0.00000    1.000000    
    865 Au    c    0.500000 *  0.571429 *  0.642857 *   0.00000    1.000000    
    866 Au    c    0.500000 *  0.571429 *  0.785714 *   0.00000    1.000000    
    867 Au    c    0.500000 *  0.571429 *  0.928571 *   0.00000    1.000000    
    868 Au    c    0.500000 *  0.714286 *  0.071429 *   0.00000    1.000000    
    869 Au    c    0.500000 *  0.714286 *  0.214286 *   0.00000    1.000000    
    870 Au    c    0.500000 *  0.714286 *  0.357143 *   0.00000    1.000000    
    871 Au    c    0.500000 *  0.714286 *  0.500000 *   0.00000    1.000000    
    872 Au    c    0.500000 *  0.714286 *  0.642857 *   0.00000    1.000000    
    873 Au    c    0.500000 *  0.714286 *  0.785714 *   0.00000    1.000000    
    874 Au    c    0.500000 *  0.714286 *  0.928571 *   0.00000    1.000000    
    875 Au    c    0.500000 *  0.857143 *  0.071429 *   0.00000    1.000000    
    876 Au    c    0.500000 *  0.857143 *  0.214286 *   0.00000    1.000000    
    877 Au    c    0.500000 *  0.857143 *  0.357143 *   0.00000    1.000000    
    878 Au    c    0.500000 *  0.857143 *  0.500000 *   0.00000    1.000000    
    879 Au    c    0.500000 *  0.857143 *  0.642857 *   0.00000    1.000000    
    880 Au    c    0.500000 *  0.857143 *  0.785714 *   0.00000    1.000000    
    881 Au    c    0.500000 *  0.857143 *  0.928571 *   0.00000    1.000000    
    882 Au    c    0.642857 *  0.000000 *  0.071429 *   0.00000    1.000000    
    883 Au    c    0.642857 *  0.000000 *  0.214286 *   0.00000    1.000000    
    884 Au    c    0.642857 *  0.000000 *  0.357143 *   0.00000    1.000000    
    885 Au    c    0.642857 *  0.000000 *  0.500000 *   0.00000    1.000000    
    886 Au    c    0.642857 *  0.000000 *  0.642857 *   0.00000    1.000000    
    887 Au    c    0.642857 *  0.000000 *  0.785714 *   0.00000    1.000000    
    888 Au    c    0.642857 *  0.000000 *  0.928571 *   0.00000    1.000000    
    889 Au    c    0.642857 *  0.142857 *  0.071429 *   0.00000    1.000000    
    890 Au    c    0.642857 *  0.142857 *  0.214286 *   0.00000    1.000000    
    891 Au    c    0.642857 *  0.142857 *  0.357143 *   0.00000    1.000000    
    892 Au    c    0.642857 *  0.142857 *  0.500000 *   0.00000    1.000000    
    893 Au    c    0.642857 *  0.142857 *  0.642857 *   0.00000    1.000000    
    894 Au    c    0.642857 *  0.142857 *  0.785714 *   0.00000    1.000000    
    895 Au    c    0.642857 *  0.142857 *  0.928571 *   0.00000    1.000000    
    896 Au    c    0.642857 *  0.285714 *  0.071429 *   0.00000    1.000000    
    897 Au    c    0.642857 *  0.285714 *  0.214286 *   0.00000    1.000000    
    898 Au    c    0.642857 *  0.285714 *  0.357143 *   0.00000    1.000000    
    899 Au    c    0.642857 *  0.285714 *  0.500000 *   0.00000    1.000000    
    900 Au    c    0.642857 *  0.285714 *  0.642857 *   0.00000    1.000000    
    901 Au    c    0.642857 *  0.285714 *  0.785714 *   0.00000    1.000000    
    902 Au    c    0.642857 *  0.285714 *  0.928571 *   0.00000    1.000000    
    903 Au    c    0.642857 *  0.428571 *  0.071429 *   0.00000    1.000000    
    904 Au    c    0.642857 *  0.428571 *  0.214286 *   0.00000    1.000000    
    905 Au    c    0.642857 *  0.428571 *  0.357143 *   0.00000    1.000000    
    906 Au    c    0.642857 *  0.428571 *  0.500000 *   0.00000    1.000000    
    907 Au    c    0.642857 *  0.428571 *  0.642857 *   0.00000    1.000000    
    908 Au    c    0.642857 *  0.428571 *  0.785714 *   0.00000    1.000000    
    909 Au    c    0.642857 *  0.428571 *  0.928571 *   0.00000    1.000000    
    910 Au    c    0.642857 *  0.571429 *  0.071429 *   0.00000    1.000000    
    911 Au    c    0.642857 *  0.571429 *  0.214286 *   0.00000    1.000000    
    912 Au    c    0.642857 *  0.571429 *  0.357143 *   0.00000    1.000000    
    913 Au    c    0.642857 *  0.571429 *  0.500000 *   0.00000    1.000000    
    914 Au    c    0.642857 *  0.571429 *  0.642857 *   0.00000    1.000000    
    915 Au    c    0.642857 *  0.571429 *  0.785714 *   0.00000    1.000000    
    916 Au    c    0.642857 *  0.571429 *  0.928571 *   0.00000    1.000000    
    917 Au    c    0.642857 *  0.714286 *  0.071429 *   0.00000    1.000000    
    918 Au    c    0.642857 *  0.714286 *  0.214286 *   0.00000    1.000000    
    919 Au    c    0.642857 *  0.714286 *  0.357143 *   0.00000    1.000000    
    920 Au    c    0.642857 *  0.714286 *  0.500000 *   0.00000    1.000000    
    921 Au    c    0.642857 *  0.714286 *  0.642857 *   0.00000    1.000000    
    922 Au    c    0.642857 *  0.714286 *  0.785714 *   0.00000    1.000000    
    923 Au    c    0.642857 *  0.714286 *  0.928571 *   0.00000    1.000000    
    924 Au    c    0.642857 *  0.857143 *  0.071429 *   0.00000    1.000000    
    925 Au    c    0.642857 *  0.857143 *  0.214286 *   0.00000    1.000000    
    926 Au    c    0.642857 *  0.857143 *  0.357143 *   0.00000    1.000000    
    927 Au    c    0.642857 *  0.857143 *  0.500000 *   0.00000    1.000000    
    928 Au    c    0.642857 *  0.857143 *  0.642857 *   0.00000    1.000000    
    929 Au    c    0.642857 *  0.857143 *  0.785714 *   0.00000    1.000000    
    930 Au    c    0.642857 *  0.857143 *  0.928571 *   0.00000    1.000000    
    931 Au    c    0.785714 *  0.000000 *  0.071429 *   0.00000    1.000000    
    932 Au    c    0.785714 *  0.000000 *  0.214286 *   0.00000    1.000000    
    933 Au    c    0.785714 *  0.000000 *  0.357143 *   0.00000    1.000000    
    934 Au    c    0.785714 *  0.000000 *  0.500000 *   0.00000    1.000000    
    935 Au    c    0.785714 *  0.000000 *  0.642857 *   0.00000    1.000000    
    936 Au    c    0.785714 *  0.000000 *  0.785714 *   0.00000    1.000000    
    937 Au    c    0.785714 *  0.000000 *  0.928571 *   0.00000    1.000000    
    938 Au    c    0.785714 *  0.142857 *  0.071429 *   0.00000    1.000000    
    939 Au    c    0.785714 *  0.142857 *  0.214286 *   0.00000    1.000000    
    940 Au    c    0.785714 *  0.142857 *  0.357143 *   0.00000    1.000000    
    941 Au    c    0.785714 *  0.142857 *  0.500000 *   0.00000    1.000000    
    942 Au    c    0.785714 *  0.142857 *  0.642857 *   0.00000    1.000000    
    943 Au    c    0.785714 *  0.142857 *  0.785714 *   0.00000    1.000000    
    944 Au    c    0.785714 *  0.142857 *  0.928571 *   0.00000    1.000000    
    945 Au    c    0.785714 *  0.285714 *  0.071429 *   0.00000    1.000000    
    946 Au    c    0.785714 *  0.285714 *  0.214286 *   0.00000    1.000000    
    947 Au    c    0.785714 *  0.285714 *  0.357143 *   0.00000    1.000000    
    948 Au    c    0.785714 *  0.285714 *  0.500000 *   0.00000    1.000000    
    949 Au    c    0.785714 *  0.285714 *  0.642857 *   0.00000    1.000000    
    950 Au    c    0.785714 *  0.285714 *  0.785714 *   0.00000    1.000000    
    951 Au    c    0.785714 *  0.285714 *  0.928571 *   0.00000    1.000000    
    952 Au    c    0.785714 *  0.428571 *  0.071429 *   0.00000    1.000000    
    953 Au    c    0.785714 *  0.428571 *  0.214286 *   0.00000    1.000000    
    954 Au    c    0.785714 *  0.428571 *  0.357143 *   0.00000    1.000000    
    955 Au    c    0.785714 *  0.428571 *  0.500000 *   0.00000    1.000000    
    956 Au    c    0.785714 *  0.428571 *  0.642857 *   0.00000    1.000000    
    957 Au    c    0.785714 *  0.428571 *  0.785714 *   0.00000    1.000000    
    958 Au    c    0.785714 *  0.428571 *  0.928571 *   0.00000    1.000000    
    959 Au    c    0.785714 *  0.571429 *  0.071429 *   0.00000    1.000000    
    960 Au    c    0.785714 *  0.571429 *  0.214286 *   0.00000    1.000000    
    961 Au    c    0.785714 *  0.571429 *  0.357143 *   0.00000    1.000000    
    962 Au    c    0.785714 *  0.571429 *  0.500000 *   0.00000    1.000000    
    963 Au    c    0.785714 *  0.571429 *  0.642857 *   0.00000    1.000000    
    964 Au    c    0.785714 *  0.571429 *  0.785714 *   0.00000    1.000000    
    965 Au    c    0.785714 *  0.571429 *  0.928571 *   0.00000    1.000000    
    966 Au    c    0.785714 *  0.714286 *  0.071429 *   0.00000    1.000000    
    967 Au    c    0.785714 *  0.714286 *  0.214286 *   0.00000    1.000000    
[...]
   1290 z          0.285714      0.285207     0.000507    Fractional   0.18
   1291 x          0.785714      0.785215     0.000499    Fractional   0.06
   1291 y          0.357143      0.357138     0.000005    Fractional   0.00
   1291 z          0.428571      0.428064     0.000507    Fractional   0.12
   1292 x          0.785714      0.785214     0.000500    Fractional   0.06
   1292 y          0.357143      0.357140     0.000003    Fractional   0.00
   1292 z          0.571429      0.570926     0.000503    Fractional   0.09
   1293 x          0.785714      0.785215     0.000499    Fractional   0.06
   1293 y          0.357143      0.357138     0.000005    Fractional   0.00
   1293 z          0.714286      0.713787     0.000499    Fractional   0.07
   1294 x          0.785714      0.785218     0.000496    Fractional   0.06
   1294 y          0.357143      0.357135     0.000008    Fractional   0.00
   1294 z          0.857143      0.856645     0.000498    Fractional   0.06
   1295 x          0.785714      0.785210     0.000504    Fractional   0.06
   1295 y          0.500000      0.500000     0.000000    Fractional   0.00
   1295 z          0.000000      0.999497     0.999497    Fractional   0.00
   1296 x          0.785714      0.785210     0.000504    Fractional   0.06
   1296 y          0.500000      0.500000     0.000000    Fractional   0.00
   1296 z          0.142857      0.142355     0.000502    Fractional   0.35
   1297 x          0.785714      0.785213     0.000501    Fractional   0.06
   1297 y          0.500000      0.500000     0.000000    Fractional   0.00
   1297 z          0.285714      0.285210     0.000504    Fractional   0.18
   1298 x          0.785714      0.785214     0.000500    Fractional   0.06
   1298 y          0.500000      0.500000     0.000000    Fractional   0.00
   1298 z          0.428571      0.428066     0.000505    Fractional   0.12
   1299 x          0.785714      0.785214     0.000500    Fractional   0.06
   1299 y          0.500000      0.500000     0.000000    Fractional   0.00
   1299 z          0.571429      0.570926     0.000503    Fractional   0.09
   1300 x          0.785714      0.785214     0.000500    Fractional   0.06
   1300 y          0.500000      0.500000     0.000000    Fractional   0.00
   1300 z          0.714286      0.713785     0.000501    Fractional   0.07
   1301 x          0.785714      0.785213     0.000501    Fractional   0.06
   1301 y          0.500000      0.500000     0.000000    Fractional   0.00
   1301 z          0.857143      0.856641     0.000502    Fractional   0.06
   1302 x          0.785714      0.785219     0.000495    Fractional   0.06
   1302 y          0.642857      0.642867     0.000010    Fractional   0.00
   1302 z          0.000000      0.999499     0.999499    Fractional   0.00
   1303 x          0.785714      0.785219     0.000495    Fractional   0.06
   1303 y          0.642857      0.642867     0.000010    Fractional   0.00
   1303 z          0.142857      0.142352     0.000505    Fractional   0.35
   1304 x          0.785714      0.785218     0.000496    Fractional   0.06
   1304 y          0.642857      0.642865     0.000008    Fractional   0.00
   1304 z          0.285714      0.285207     0.000507    Fractional   0.18
   1305 x          0.785714      0.785215     0.000499    Fractional   0.06
   1305 y          0.642857      0.642862     0.000005    Fractional   0.00
   1305 z          0.428571      0.428064     0.000507    Fractional   0.12
   1306 x          0.785714      0.785214     0.000500    Fractional   0.06
   1306 y          0.642857      0.642860     0.000003    Fractional   0.00
   1306 z          0.571429      0.570926     0.000503    Fractional   0.09
   1307 x          0.785714      0.785215     0.000499    Fractional   0.06
   1307 y          0.642857      0.642862     0.000005    Fractional   0.00
   1307 z          0.714286      0.713787     0.000499    Fractional   0.07
   1308 x          0.785714      0.785218     0.000496    Fractional   0.06
   1308 y          0.642857      0.642865     0.000008    Fractional   0.00
   1308 z          0.857143      0.856645     0.000498    Fractional   0.06
   1309 x          0.785714      0.785229     0.000485    Fractional   0.06
   1309 y          0.785714      0.785730     0.000016    Fractional   0.00
   1309 z          0.000000      0.999503     0.999503    Fractional   0.00
   1310 x          0.785714      0.785229     0.000485    Fractional   0.06
   1310 y          0.785714      0.785730     0.000016    Fractional   0.00
   1310 z          0.142857      0.142348     0.000509    Fractional   0.36
   1311 x          0.785714      0.785226     0.000488    Fractional   0.06
   1311 y          0.785714      0.785726     0.000012    Fractional   0.00
   1311 z          0.285714      0.285200     0.000514    Fractional   0.18
   1312 x          0.785714      0.785218     0.000496    Fractional   0.06
   1312 y          0.785714      0.785719     0.000005    Fractional   0.00
   1312 z          0.428571      0.428060     0.000511    Fractional   0.12
   1313 x          0.785714      0.785213     0.000501    Fractional   0.06
   1313 y          0.785714      0.785716     0.000002    Fractional   0.00
   1313 z          0.571429      0.570926     0.000503    Fractional   0.09
   1314 x          0.785714      0.785218     0.000496    Fractional   0.06
   1314 y          0.785714      0.785719     0.000005    Fractional   0.00
   1314 z          0.714286      0.713791     0.000495    Fractional   0.07
   1315 x          0.785714      0.785226     0.000488    Fractional   0.06
   1315 y          0.785714      0.785726     0.000012    Fractional   0.00
   1315 z          0.857143      0.856651     0.000492    Fractional   0.06
   1316 x          0.785714      0.785185     0.000529    Fractional   0.07
   1316 y          0.928571      0.928563     0.000008    Fractional   0.00
   1316 z          0.000000      0.999489     0.999489    Fractional   0.00
   1317 x          0.785714      0.785185     0.000529    Fractional   0.07
   1317 y          0.928571      0.928563     0.000008    Fractional   0.00
   1317 z          0.142857      0.142362     0.000495    Fractional   0.35
   1318 x          0.785714      0.785229     0.000485    Fractional   0.06
   1318 y          0.928571      0.928577     0.000006    Fractional   0.00
   1318 z          0.285714      0.285195     0.000519    Fractional   0.18
   1319 x          0.785714      0.785219     0.000495    Fractional   0.06
   1319 y          0.928571      0.928573     0.000002    Fractional   0.00
   1319 z          0.428571      0.428059     0.000512    Fractional   0.12
   1320 x          0.785714      0.785210     0.000504    Fractional   0.06
   1320 y          0.928571      0.928571     0.000000    Fractional   0.00
   1320 z          0.571429      0.570926     0.000503    Fractional   0.09
   1321 x          0.785714      0.785219     0.000495    Fractional   0.06
   1321 y          0.928571      0.928573     0.000002    Fractional   0.00
   1321 z          0.714286      0.713792     0.000494    Fractional   0.07
   1322 x          0.785714      0.785229     0.000485    Fractional   0.06
   1322 y          0.928571      0.928577     0.000006    Fractional   0.00
   1322 z          0.857143      0.856656     0.000487    Fractional   0.06
   1323 x          0.928571      0.928145     0.000426    Fractional   0.05
   1323 y          0.071429      0.071358     0.000071    Fractional   0.10
   1323 z          0.000000      0.999568     0.999568    Fractional   0.00
   1324 x          0.928571      0.928145     0.000426    Fractional   0.05
   1324 y          0.071429      0.071358     0.000071    Fractional   0.10
   1324 z          0.142857      0.142283     0.000574    Fractional   0.40
   1325 x          0.928571      0.928100     0.000471    Fractional   0.05
   1325 y          0.071429      0.071409     0.000020    Fractional   0.03
   1325 z          0.285714      0.285175     0.000539    Fractional   0.19
   1326 x          0.928571      0.928064     0.000507    Fractional   0.05
   1326 y          0.071429      0.071431     0.000002    Fractional   0.00
   1326 z          0.428571      0.428077     0.000494    Fractional   0.12
   1327 x          0.928571      0.928065     0.000506    Fractional   0.05
   1327 y          0.071429      0.071430     0.000001    Fractional   0.00
   1327 z          0.571429      0.570926     0.000503    Fractional   0.09
   1328 x          0.928571      0.928064     0.000507    Fractional   0.05
   1328 y          0.071429      0.071431     0.000002    Fractional   0.00
   1328 z          0.714286      0.713774     0.000512    Fractional   0.07
   1329 x          0.928571      0.928100     0.000471    Fractional   0.05
   1329 y          0.071429      0.071409     0.000020    Fractional   0.03
   1329 z          0.857143      0.856676     0.000467    Fractional   0.05
   1330 x          0.928571      0.928100     0.000471    Fractional   0.05
   1330 y          0.214286      0.214250     0.000036    Fractional   0.02
   1330 z          0.000000      0.999517     0.999517    Fractional   0.00
   1331 x          0.928571      0.928100     0.000471    Fractional   0.05
   1331 y          0.214286      0.214250     0.000036    Fractional   0.02
   1331 z          0.142857      0.142335     0.000522    Fractional   0.37
   1332 x          0.928571      0.928086     0.000485    Fractional   0.05
   1332 y          0.214286      0.214261     0.000025    Fractional   0.01
   1332 z          0.285714      0.285186     0.000528    Fractional   0.18
   1333 x          0.928571      0.928072     0.000499    Fractional   0.05
   1333 y          0.214286      0.214281     0.000005    Fractional   0.00
   1333 z          0.428571      0.428061     0.000510    Fractional   0.12
   1334 x          0.928571      0.928067     0.000504    Fractional   0.05
   1334 y          0.214286      0.214288     0.000002    Fractional   0.00
   1334 z          0.571429      0.570926     0.000503    Fractional   0.09
   1335 x          0.928571      0.928072     0.000499    Fractional   0.05
   1335 y          0.214286      0.214281     0.000005    Fractional   0.00
   1335 z          0.714286      0.713790     0.000496    Fractional   0.07
   1336 x          0.928571      0.928086     0.000485    Fractional   0.05
   1336 y          0.214286      0.214261     0.000025    Fractional   0.01
   1336 z          0.857143      0.856665     0.000478    Fractional   0.06
   1337 x          0.928571      0.928064     0.000507    Fractional   0.05
   1337 y          0.357143      0.357151     0.000008    Fractional   0.00
   1337 z          0.000000      0.999494     0.999494    Fractional   0.00
   1338 x          0.928571      0.928064     0.000507    Fractional   0.05
   1338 y          0.357143      0.357151     0.000008    Fractional   0.00
   1338 z          0.142857      0.142357     0.000500    Fractional   0.35
   1339 x          0.928571      0.928072     0.000499    Fractional   0.05
   1339 y          0.357143      0.357135     0.000008    Fractional   0.00
   1339 z          0.285714      0.285206     0.000508    Fractional   0.18
   1340 x          0.928571      0.928071     0.000500    Fractional   0.05
   1340 y          0.357143      0.357136     0.000007    Fractional   0.00
   1340 z          0.428571      0.428062     0.000509    Fractional   0.12
   1341 x          0.928571      0.928070     0.000501    Fractional   0.05
   1341 y          0.357143      0.357141     0.000002    Fractional   0.00
   1341 z          0.571429      0.570926     0.000503    Fractional   0.09
   1342 x          0.928571      0.928071     0.000500    Fractional   0.05
   1342 y          0.357143      0.357136     0.000007    Fractional   0.00
   1342 z          0.714286      0.713789     0.000497    Fractional   0.07
   1343 x          0.928571      0.928072     0.000499    Fractional   0.05
   1343 y          0.357143      0.357135     0.000008    Fractional   0.00
   1343 z          0.857143      0.856645     0.000498    Fractional   0.06
   1344 x          0.928571      0.928065     0.000506    Fractional   0.05
   1344 y          0.500000      0.500000     0.000000    Fractional   0.00
   1344 z          0.000000      0.999495     0.999495    Fractional   0.00
   1345 x          0.928571      0.928065     0.000506    Fractional   0.05
   1345 y          0.500000      0.500000     0.000000    Fractional   0.00
   1345 z          0.142857      0.142356     0.000501    Fractional   0.35
   1346 x          0.928571      0.928067     0.000504    Fractional   0.05
   1346 y          0.500000      0.500000     0.000000    Fractional   0.00
   1346 z          0.285714      0.285213     0.000501    Fractional   0.18
   1347 x          0.928571      0.928070     0.000501    Fractional   0.05
   1347 y          0.500000      0.500000     0.000000    Fractional   0.00
   1347 z          0.428571      0.428066     0.000505    Fractional   0.12
   1348 x          0.928571      0.928070     0.000501    Fractional   0.05
   1348 y          0.500000      0.500000     0.000000    Fractional   0.00
   1348 z          0.571429      0.570926     0.000503    Fractional   0.09
   1349 x          0.928571      0.928070     0.000501    Fractional   0.05
   1349 y          0.500000      0.500000     0.000000    Fractional   0.00
   1349 z          0.714286      0.713785     0.000501    Fractional   0.07
   1350 x          0.928571      0.928067     0.000504    Fractional   0.05
   1350 y          0.500000      0.500000     0.000000    Fractional   0.00
   1350 z          0.857143      0.856638     0.000505    Fractional   0.06
   1351 x          0.928571      0.928064     0.000507    Fractional   0.05
   1351 y          0.642857      0.642849     0.000008    Fractional   0.00
   1351 z          0.000000      0.999494     0.999494    Fractional   0.00
   1352 x          0.928571      0.928064     0.000507    Fractional   0.05
   1352 y          0.642857      0.642849     0.000008    Fractional   0.00
   1352 z          0.142857      0.142357     0.000500    Fractional   0.35
   1353 x          0.928571      0.928072     0.000499    Fractional   0.05
   1353 y          0.642857      0.642865     0.000008    Fractional   0.00
   1353 z          0.285714      0.285206     0.000508    Fractional   0.18
   1354 x          0.928571      0.928071     0.000500    Fractional   0.05
   1354 y          0.642857      0.642864     0.000007    Fractional   0.00
   1354 z          0.428571      0.428062     0.000509    Fractional   0.12
   1355 x          0.928571      0.928070     0.000501    Fractional   0.05
   1355 y          0.642857      0.642859     0.000002    Fractional   0.00
   1355 z          0.571429      0.570926     0.000503    Fractional   0.09
   1356 x          0.928571      0.928071     0.000500    Fractional   0.05
   1356 y          0.642857      0.642864     0.000007    Fractional   0.00
   1356 z          0.714286      0.713789     0.000497    Fractional   0.07
   1357 x          0.928571      0.928072     0.000499    Fractional   0.05
   1357 y          0.642857      0.642865     0.000008    Fractional   0.00
   1357 z          0.857143      0.856645     0.000498    Fractional   0.06
   1358 x          0.928571      0.928100     0.000471    Fractional   0.05
   1358 y          0.785714      0.785750     0.000036    Fractional   0.00
   1358 z          0.000000      0.999517     0.999517    Fractional   0.00
   1359 x          0.928571      0.928100     0.000471    Fractional   0.05
   1359 y          0.785714      0.785750     0.000036    Fractional   0.00
   1359 z          0.142857      0.142335     0.000522    Fractional   0.37
   1360 x          0.928571      0.928086     0.000485    Fractional   0.05
   1360 y          0.785714      0.785739     0.000025    Fractional   0.00
   1360 z          0.285714      0.285186     0.000528    Fractional   0.18
   1361 x          0.928571      0.928072     0.000499    Fractional   0.05
   1361 y          0.785714      0.785719     0.000005    Fractional   0.00
   1361 z          0.428571      0.428061     0.000510    Fractional   0.12
   1362 x          0.928571      0.928067     0.000504    Fractional   0.05
   1362 y          0.785714      0.785712     0.000002    Fractional   0.00
   1362 z          0.571429      0.570926     0.000503    Fractional   0.09
   1363 x          0.928571      0.928072     0.000499    Fractional   0.05
   1363 y          0.785714      0.785719     0.000005    Fractional   0.00
   1363 z          0.714286      0.713790     0.000496    Fractional   0.07
   1364 x          0.928571      0.928086     0.000485    Fractional   0.05
   1364 y          0.785714      0.785739     0.000025    Fractional   0.00
   1364 z          0.857143      0.856665     0.000478    Fractional   0.06
   1365 x          0.928571      0.928145     0.000426    Fractional   0.05
   1365 y          0.928571      0.928642     0.000071    Fractional   0.01
   1365 z          0.000000      0.999568     0.999568    Fractional   0.00
   1366 x          0.928571      0.928145     0.000426    Fractional   0.05
   1366 y          0.928571      0.928642     0.000071    Fractional   0.01
   1366 z          0.142857      0.142283     0.000574    Fractional   0.40
   1367 x          0.928571      0.928100     0.000471    Fractional   0.05
   1367 y          0.928571      0.928591     0.000020    Fractional   0.00
   1367 z          0.285714      0.285175     0.000539    Fractional   0.19
   1368 x          0.928571      0.928064     0.000507    Fractional   0.05
   1368 y          0.928571      0.928569     0.000002    Fractional   0.00
   1368 z          0.428571      0.428077     0.000494    Fractional   0.12
   1369 x          0.928571      0.928065     0.000506    Fractional   0.05
   1369 y          0.928571      0.928570     0.000001    Fractional   0.00
   1369 z          0.571429      0.570926     0.000503    Fractional   0.09
   1370 x          0.928571      0.928064     0.000507    Fractional   0.05
   1370 y          0.928571      0.928569     0.000002    Fractional   0.00
   1370 z          0.714286      0.713774     0.000512    Fractional   0.07
   1371 x          0.928571      0.928100     0.000471    Fractional   0.05
   1371 y          0.928571      0.928591     0.000020    Fractional   0.00
   1371 z          0.857143      0.856676     0.000467    Fractional   0.05
--------------------------------------------------------------------------------


  Distance calculation :


  Cutoff for distances  =      2.000000 Angstroms

--------------------------------------------------------------------------------
  Asymmetric unit site  Full lattice sites    No.  Distance      No.  Distance
      No.   At.No.            At.No.                (Angs)             (Angs) 
--------------------------------------------------------------------------------



  Time to end of optimisation =      37.8592 seconds


  Peak dynamic memory used =     344.17 MB 


  Timing analysis for GULP :

--------------------------------------------------------------------------------
  Task / Subroutine                                          Time (Seconds)
--------------------------------------------------------------------------------
  Calculation of real space energy and derivatives               17.5779
  Calculation and manipulation of Hessian matrix                  0.0306
  Calculation of matrix inversion                                19.0908
--------------------------------------------------------------------------------
  Total CPU time                                                 37.8593
--------------------------------------------------------------------------------


  Job Finished at 17:29.31  6th January    2019                               

