********************************************************************************
*                       GENERAL UTILITY LATTICE PROGRAM                        *
*                                 Julian Gale                                  *
*                       Curtin Institute for Computation                       *
*                           Department of Chemistry                            *
*                    Curtin University, Western Australia                      *
********************************************************************************
* Version = 5.1.1 * Last modified =  24th November 2018                        *
********************************************************************************
*  optimise     - perform optimisation run                                     *
*  conp         - constant pressure calculation                                *
*  distance     - calculate distances                                          *
*  compare      - compare initial and final structures                         *
********************************************************************************

  Job Started  at 17:28.30  6th January    2019                               

  Number of CPUs =     1


  Total number of configurations input =      1

********************************************************************************
*  Input for Configuration =   1                                               *
********************************************************************************

  Formula = Au107                                                       

  Number of irreducible atoms/shells =     107


  Total number atoms/shells =     107

  Dimensionality = 3               :  Bulk   



  Cartesian lattice vectors (Angstroms) :

       12.231000    0.000000    0.000000
        0.000000   12.231000    0.000000
        0.000000    0.000000   12.231000

  Cell parameters (Angstroms/Degrees):

  a =      12.2310    alpha =  90.0000
  b =      12.2310    beta  =  90.0000
  c =      12.2310    gamma =  90.0000

  Initial cell volume =        1829.725322 Angs**3

  Temperature of configuration =  0.000     K 

  Pressure of configuration =         0.000 GPa 

  Fractional coordinates of asymmetric unit :

--------------------------------------------------------------------------------
   No.  Atomic       x           y          z         Charge      Occupancy
        Label      (Frac)      (Frac)     (Frac)        (e)         (Frac)  
--------------------------------------------------------------------------------
      1 Au    c    0.000000    0.000000    0.000000     0.00000    1.000000    
      2 Au    c    0.000000 *  0.000000 *  0.333333 *   0.00000    1.000000    
      3 Au    c    0.000000 *  0.000000 *  0.666667 *   0.00000    1.000000    
      4 Au    c    0.000000 *  0.333333 *  0.000000 *   0.00000    1.000000    
      5 Au    c    0.000000 *  0.333333 *  0.333333 *   0.00000    1.000000    
      6 Au    c    0.000000 *  0.333333 *  0.666667 *   0.00000    1.000000    
      7 Au    c    0.000000 *  0.666667 *  0.000000 *   0.00000    1.000000    
      8 Au    c    0.000000 *  0.666667 *  0.333333 *   0.00000    1.000000    
      9 Au    c    0.000000 *  0.666667 *  0.666667 *   0.00000    1.000000    
     10 Au    c    0.333333 *  0.000000 *  0.000000 *   0.00000    1.000000    
     11 Au    c    0.333333 *  0.000000 *  0.333333 *   0.00000    1.000000    
     12 Au    c    0.333333 *  0.000000 *  0.666667 *   0.00000    1.000000    
     13 Au    c    0.333333 *  0.333333 *  0.000000 *   0.00000    1.000000    
     14 Au    c    0.333333 *  0.333333 *  0.333333 *   0.00000    1.000000    
     15 Au    c    0.333333 *  0.333333 *  0.666667 *   0.00000    1.000000    
     16 Au    c    0.333333 *  0.666667 *  0.000000 *   0.00000    1.000000    
     17 Au    c    0.333333 *  0.666667 *  0.333333 *   0.00000    1.000000    
     18 Au    c    0.333333 *  0.666667 *  0.666667 *   0.00000    1.000000    
     19 Au    c    0.666667 *  0.000000 *  0.000000 *   0.00000    1.000000    
     20 Au    c    0.666667 *  0.000000 *  0.333333 *   0.00000    1.000000    
     21 Au    c    0.666667 *  0.000000 *  0.666667 *   0.00000    1.000000    
     22 Au    c    0.666667 *  0.333333 *  0.000000 *   0.00000    1.000000    
     23 Au    c    0.666667 *  0.333333 *  0.333333 *   0.00000    1.000000    
     24 Au    c    0.666667 *  0.333333 *  0.666667 *   0.00000    1.000000    
     25 Au    c    0.666667 *  0.666667 *  0.000000 *   0.00000    1.000000    
     26 Au    c    0.666667 *  0.666667 *  0.333333 *   0.00000    1.000000    
     27 Au    c    0.666667 *  0.666667 *  0.666667 *   0.00000    1.000000    
     28 Au    c    0.000000 *  0.166667 *  0.166667 *   0.00000    1.000000    
     29 Au    c    0.000000 *  0.166667 *  0.500000 *   0.00000    1.000000    
     30 Au    c    0.000000 *  0.166667 *  0.833333 *   0.00000    1.000000    
     31 Au    c    0.000000 *  0.500000 *  0.166667 *   0.00000    1.000000    
     32 Au    c    0.000000 *  0.500000 *  0.500000 *   0.00000    1.000000    
     33 Au    c    0.000000 *  0.500000 *  0.833333 *   0.00000    1.000000    
     34 Au    c    0.000000 *  0.833333 *  0.166667 *   0.00000    1.000000    
     35 Au    c    0.000000 *  0.833333 *  0.500000 *   0.00000    1.000000    
     36 Au    c    0.000000 *  0.833333 *  0.833333 *   0.00000    1.000000    
     37 Au    c    0.333333 *  0.166667 *  0.166667 *   0.00000    1.000000    
     38 Au    c    0.333333 *  0.166667 *  0.500000 *   0.00000    1.000000    
     39 Au    c    0.333333 *  0.166667 *  0.833333 *   0.00000    1.000000    
     40 Au    c    0.333333 *  0.500000 *  0.166667 *   0.00000    1.000000    
     41 Au    c    0.333333 *  0.500000 *  0.500000 *   0.00000    1.000000    
     42 Au    c    0.333333 *  0.500000 *  0.833333 *   0.00000    1.000000    
     43 Au    c    0.333333 *  0.833333 *  0.166667 *   0.00000    1.000000    
     44 Au    c    0.333333 *  0.833333 *  0.500000 *   0.00000    1.000000    
     45 Au    c    0.333333 *  0.833333 *  0.833333 *   0.00000    1.000000    
     46 Au    c    0.666667 *  0.166667 *  0.166667 *   0.00000    1.000000    
     47 Au    c    0.666667 *  0.166667 *  0.500000 *   0.00000    1.000000    
     48 Au    c    0.666667 *  0.166667 *  0.833333 *   0.00000    1.000000    
     49 Au    c    0.666667 *  0.500000 *  0.166667 *   0.00000    1.000000    
     50 Au    c    0.666667 *  0.500000 *  0.500000 *   0.00000    1.000000    
     51 Au    c    0.666667 *  0.500000 *  0.833333 *   0.00000    1.000000    
     52 Au    c    0.666667 *  0.833333 *  0.166667 *   0.00000    1.000000    
     53 Au    c    0.666667 *  0.833333 *  0.500000 *   0.00000    1.000000    
     54 Au    c    0.666667 *  0.833333 *  0.833333 *   0.00000    1.000000    
     55 Au    c    0.166667 *  0.000000 *  0.500000 *   0.00000    1.000000    
     56 Au    c    0.166667 *  0.000000 *  0.833333 *   0.00000    1.000000    
     57 Au    c    0.166667 *  0.333333 *  0.166667 *   0.00000    1.000000    
     58 Au    c    0.166667 *  0.333333 *  0.500000 *   0.00000    1.000000    
     59 Au    c    0.166667 *  0.333333 *  0.833333 *   0.00000    1.000000    
     60 Au    c    0.166667 *  0.666667 *  0.166667 *   0.00000    1.000000    
     61 Au    c    0.166667 *  0.666667 *  0.500000 *   0.00000    1.000000    
     62 Au    c    0.166667 *  0.666667 *  0.833333 *   0.00000    1.000000    
     63 Au    c    0.500000 *  0.000000 *  0.166667 *   0.00000    1.000000    
     64 Au    c    0.500000 *  0.000000 *  0.500000 *   0.00000    1.000000    
     65 Au    c    0.500000 *  0.000000 *  0.833333 *   0.00000    1.000000    
     66 Au    c    0.500000 *  0.333333 *  0.166667 *   0.00000    1.000000    
     67 Au    c    0.500000 *  0.333333 *  0.500000 *   0.00000    1.000000    
     68 Au    c    0.500000 *  0.333333 *  0.833333 *   0.00000    1.000000    
     69 Au    c    0.500000 *  0.666667 *  0.166667 *   0.00000    1.000000    
     70 Au    c    0.500000 *  0.666667 *  0.500000 *   0.00000    1.000000    
     71 Au    c    0.500000 *  0.666667 *  0.833333 *   0.00000    1.000000    
     72 Au    c    0.833333 *  0.000000 *  0.166667 *   0.00000    1.000000    
     73 Au    c    0.833333 *  0.000000 *  0.500000 *   0.00000    1.000000    
     74 Au    c    0.833333 *  0.000000 *  0.833333 *   0.00000    1.000000    
     75 Au    c    0.833333 *  0.333333 *  0.166667 *   0.00000    1.000000    
     76 Au    c    0.833333 *  0.333333 *  0.500000 *   0.00000    1.000000    
     77 Au    c    0.833333 *  0.333333 *  0.833333 *   0.00000    1.000000    
     78 Au    c    0.833333 *  0.666667 *  0.166667 *   0.00000    1.000000    
     79 Au    c    0.833333 *  0.666667 *  0.500000 *   0.00000    1.000000    
     80 Au    c    0.833333 *  0.666667 *  0.833333 *   0.00000    1.000000    
     81 Au    c    0.166667 *  0.166667 *  0.000000 *   0.00000    1.000000    
     82 Au    c    0.166667 *  0.166667 *  0.333333 *   0.00000    1.000000    
     83 Au    c    0.166667 *  0.166667 *  0.666667 *   0.00000    1.000000    
     84 Au    c    0.166667 *  0.500000 *  0.000000 *   0.00000    1.000000    
     85 Au    c    0.166667 *  0.500000 *  0.333333 *   0.00000    1.000000    
     86 Au    c    0.166667 *  0.500000 *  0.666667 *   0.00000    1.000000    
     87 Au    c    0.166667 *  0.833333 *  0.000000 *   0.00000    1.000000    
     88 Au    c    0.166667 *  0.833333 *  0.333333 *   0.00000    1.000000    
     89 Au    c    0.166667 *  0.833333 *  0.666667 *   0.00000    1.000000    
     90 Au    c    0.500000 *  0.166667 *  0.000000 *   0.00000    1.000000    
     91 Au    c    0.500000 *  0.166667 *  0.333333 *   0.00000    1.000000    
     92 Au    c    0.500000 *  0.166667 *  0.666667 *   0.00000    1.000000    
     93 Au    c    0.500000 *  0.500000 *  0.000000 *   0.00000    1.000000    
     94 Au    c    0.500000 *  0.500000 *  0.333333 *   0.00000    1.000000    
     95 Au    c    0.500000 *  0.500000 *  0.666667 *   0.00000    1.000000    
     96 Au    c    0.500000 *  0.833333 *  0.000000 *   0.00000    1.000000    
     97 Au    c    0.500000 *  0.833333 *  0.333333 *   0.00000    1.000000    
     98 Au    c    0.500000 *  0.833333 *  0.666667 *   0.00000    1.000000    
     99 Au    c    0.833333 *  0.166667 *  0.000000 *   0.00000    1.000000    
    100 Au    c    0.833333 *  0.166667 *  0.333333 *   0.00000    1.000000    
    101 Au    c    0.833333 *  0.166667 *  0.666667 *   0.00000    1.000000    
    102 Au    c    0.833333 *  0.500000 *  0.000000 *   0.00000    1.000000    
    103 Au    c    0.833333 *  0.500000 *  0.333333 *   0.00000    1.000000    
    104 Au    c    0.833333 *  0.500000 *  0.666667 *   0.00000    1.000000    
    105 Au    c    0.833333 *  0.833333 *  0.000000 *   0.00000    1.000000    
    106 Au    c    0.833333 *  0.833333 *  0.333333 *   0.00000    1.000000    
    107 Au    c    0.833333 *  0.833333 *  0.666667 *   0.00000    1.000000    
--------------------------------------------------------------------------------



  Distance calculation :


  Cutoff for distances  =      2.000000 Angstroms

--------------------------------------------------------------------------------
  Asymmetric unit site  Full lattice sites    No.  Distance      No.  Distance
      No.   At.No.            At.No.                (Angs)             (Angs) 
--------------------------------------------------------------------------------



********************************************************************************
*  General input information                                                   *
********************************************************************************

  Species output for all configurations : 

--------------------------------------------------------------------------------
  Species    Type    Atomic    Atomic    Charge       Radii (Angs)     Library
                     Number     Mass       (e)     Cova   Ionic  VDW   Symbol
--------------------------------------------------------------------------------
    Au       Core       79     196.97   0.000000   1.500  0.000  1.850          
--------------------------------------------------------------------------------


  Lattice summation method               =    Ewald          (3-D)
                                         =    Parry          (2-D)
                                         =    Saunders et al (1-D)
  Accuracy factor for lattice sums       =   12.000


  Time limit = Infinity

  Maximum range for interatomic potentials =    100000.000000 Angstroms

  General interatomic potentials :

--------------------------------------------------------------------------------
Atom  Types   Potential      Parameter       Value         Units   Cutoffs(Ang)
  1     2                                                            Min /  Max 
--------------------------------------------------------------------------------
Au   c Au   c Lennard       Lennard-Jones A  214108.20    eV*Ang^m  0.000 40.000
                            Lennard-Jones B  625.48200    eV*Ang^n  
                            Exponent m        12          None
                            Exponent n         6          None
--------------------------------------------------------------------------------

********************************************************************************
*  Output for configuration   1                                                *
********************************************************************************


  Components of energy : 

--------------------------------------------------------------------------------
  Interatomic potentials     =        -416.79396968 eV    
  Monopole - monopole (real) =           0.00000000 eV    
  Monopole - monopole (recip)=           0.00000000 eV    
  Monopole - monopole (total)=           0.00000000 eV    
--------------------------------------------------------------------------------
  Total lattice energy       =        -416.79396968 eV    
--------------------------------------------------------------------------------
  Total lattice energy       =          -40214.2468 kJ/(mole unit cells)
--------------------------------------------------------------------------------


  Number of variables =      324

  Maximum number of calculations  =          1000
  Maximum Hessian update interval =            10
  Maximum step size               =   1.000000000
  Maximum parameter tolerance     =   0.000010000
  Maximum function  tolerance     =   0.000010000
  Maximum gradient  tolerance     =   0.001000000
  Maximum gradient  component     =   0.010000000

  Symmetry not applied to optimisation

  Cell parameters to be optimised using strains

  Newton-Raphson optimiser to be used

  BFGS hessian update to be used

  Lower half triangular hessian to be used

  Start of bulk optimisation :

  Cycle:      0 Energy:      -416.793970  Gnorm:      0.058503  CPU:    0.176
  ** Hessian calculated **
  Cycle:      1 Energy:      -416.848893  Gnorm:      0.002064  CPU:    0.399
  Cycle:      2 Energy:      -416.848928  Gnorm:      0.000052  CPU:    0.575


  **** Optimisation achieved ****


  Final energy =    -416.84892787 eV
  Final Gnorm  =       0.00000120

  Components of energy : 

--------------------------------------------------------------------------------
  Interatomic potentials     =        -416.84892787 eV    
  Monopole - monopole (real) =           0.00000000 eV    
  Monopole - monopole (recip)=           0.00000000 eV    
  Monopole - monopole (total)=           0.00000000 eV    
--------------------------------------------------------------------------------
  Total lattice energy       =        -416.84892787 eV    
--------------------------------------------------------------------------------
  Total lattice energy       =          -40219.5494 kJ/(mole unit cells)
--------------------------------------------------------------------------------

  Final fractional coordinates of atoms :

--------------------------------------------------------------------------------
   No.  Atomic        x           y          z          Radius
        Label       (Frac)      (Frac)     (Frac)       (Angs) 
--------------------------------------------------------------------------------
     1  Au    c     0.000000    0.000000    0.000000    0.000000
     2  Au    c     0.000000    0.000000    0.331027    0.000000
     3  Au    c     0.998709    0.000000    0.665514    0.000000
     4  Au    c     0.998968    0.333153    0.998968    0.000000
     5  Au    c     0.998968    0.333153    0.332060    0.000000
     6  Au    c     0.998899    0.333288    0.665514    0.000000
     7  Au    c     0.998968    0.666847    0.998968    0.000000
     8  Au    c     0.998968    0.666847    0.332060    0.000000
     9  Au    c     0.998899    0.666712    0.665514    0.000000
    10  Au    c     0.331027    0.000000    0.000000    0.000000
    11  Au    c     0.331027    0.000000    0.331027    0.000000
    12  Au    c     0.332319    0.000000    0.665514    0.000000
    13  Au    c     0.332060    0.333153    0.998968    0.000000
    14  Au    c     0.332060    0.333153    0.332060    0.000000
    15  Au    c     0.332128    0.333288    0.665514    0.000000
    16  Au    c     0.332060    0.666847    0.998968    0.000000
    17  Au    c     0.332060    0.666847    0.332060    0.000000
    18  Au    c     0.332128    0.666712    0.665514    0.000000
    19  Au    c     0.665514    0.000000    0.998709    0.000000
    20  Au    c     0.665514    0.000000    0.332319    0.000000
    21  Au    c     0.665514    0.000000    0.665514    0.000000
    22  Au    c     0.665514    0.333288    0.998899    0.000000
    23  Au    c     0.665514    0.333288    0.332128    0.000000
    24  Au    c     0.665514    0.333302    0.665514    0.000000
    25  Au    c     0.665514    0.666712    0.998899    0.000000
    26  Au    c     0.665514    0.666712    0.332128    0.000000
    27  Au    c     0.665514    0.666698    0.665514    0.000000
    28  Au    c     1.000000    0.165514    0.165514    0.000000
    29  Au    c     0.998968    0.166546    0.498666    0.000000
    30  Au    c     0.998968    0.166546    0.832361    0.000000
    31  Au    c     0.998709    0.500000    0.165514    0.000000
    32  Au    c     0.998899    0.500000    0.498802    0.000000
    33  Au    c     0.998899    0.500000    0.832225    0.000000
    34  Au    c     1.000000    0.834486    0.165514    0.000000
    35  Au    c     0.998968    0.833454    0.498666    0.000000
    36  Au    c     0.998968    0.833454    0.832361    0.000000
    37  Au    c     0.331027    0.165514    0.165514    0.000000
    38  Au    c     0.332060    0.166546    0.498666    0.000000
    39  Au    c     0.332060    0.166546    0.832361    0.000000
    40  Au    c     0.332319    0.500000    0.165514    0.000000
    41  Au    c     0.332128    0.500000    0.498802    0.000000
    42  Au    c     0.332128    0.500000    0.832225    0.000000
    43  Au    c     0.331027    0.834486    0.165514    0.000000
    44  Au    c     0.332060    0.833454    0.498666    0.000000
    45  Au    c     0.332060    0.833454    0.832361    0.000000
    46  Au    c     0.665514    0.166805    0.165514    0.000000
    47  Au    c     0.665514    0.166614    0.498802    0.000000
    48  Au    c     0.665514    0.166614    0.832225    0.000000
    49  Au    c     0.665514    0.500000    0.165514    0.000000
    50  Au    c     0.665514    0.500000    0.498816    0.000000
    51  Au    c     0.665514    0.500000    0.832211    0.000000
    52  Au    c     0.665514    0.833195    0.165514    0.000000
    53  Au    c     0.665514    0.833386    0.498802    0.000000
    54  Au    c     0.665514    0.833386    0.832225    0.000000
    55  Au    c     0.165514    0.000000    0.499497    0.000000
    56  Au    c     0.165514    0.000000    0.831531    0.000000
    57  Au    c     0.165514    0.333983    0.165514    0.000000
    58  Au    c     0.165514    0.333055    0.498568    0.000000
    59  Au    c     0.165514    0.333055    0.832459    0.000000
    60  Au    c     0.165514    0.666017    0.165514    0.000000
    61  Au    c     0.165514    0.666945    0.498568    0.000000
    62  Au    c     0.165514    0.666945    0.832459    0.000000
    63  Au    c     0.499497    0.000000    0.165514    0.000000
    64  Au    c     0.498568    0.000000    0.498568    0.000000
    65  Au    c     0.498568    0.000000    0.832459    0.000000
    66  Au    c     0.498568    0.333055    0.165514    0.000000
    67  Au    c     0.498793    0.333279    0.498793    0.000000
    68  Au    c     0.498793    0.333279    0.832235    0.000000
    69  Au    c     0.498568    0.666945    0.165514    0.000000
    70  Au    c     0.498793    0.666721    0.498793    0.000000
    71  Au    c     0.498793    0.666721    0.832235    0.000000
    72  Au    c     0.831531    0.000000    0.165514    0.000000
    73  Au    c     0.832459    0.000000    0.498568    0.000000
    74  Au    c     0.832459    0.000000    0.832459    0.000000
    75  Au    c     0.832459    0.333055    0.165514    0.000000
    76  Au    c     0.832235    0.333279    0.498793    0.000000
    77  Au    c     0.832235    0.333279    0.832235    0.000000
    78  Au    c     0.832459    0.666945    0.165514    0.000000
    79  Au    c     0.832235    0.666721    0.498793    0.000000
    80  Au    c     0.832235    0.666721    0.832235    0.000000
    81  Au    c     0.165514    0.165514    1.000000    0.000000
    82  Au    c     0.165514    0.165514    0.331027    0.000000
    83  Au    c     0.165514    0.166805    0.665514    0.000000
    84  Au    c     0.165514    0.500000    0.998709    0.000000
    85  Au    c     0.165514    0.500000    0.332319    0.000000
    86  Au    c     0.165514    0.500000    0.665514    0.000000
    87  Au    c     0.165514    0.834486    1.000000    0.000000
    88  Au    c     0.165514    0.834486    0.331027    0.000000
    89  Au    c     0.165514    0.833195    0.665514    0.000000
    90  Au    c     0.498666    0.166546    0.998968    0.000000
    91  Au    c     0.498666    0.166546    0.332060    0.000000
    92  Au    c     0.498802    0.166614    0.665514    0.000000
    93  Au    c     0.498802    0.500000    0.998899    0.000000
    94  Au    c     0.498802    0.500000    0.332128    0.000000
    95  Au    c     0.498816    0.500000    0.665514    0.000000
    96  Au    c     0.498666    0.833454    0.998968    0.000000
    97  Au    c     0.498666    0.833454    0.332060    0.000000
    98  Au    c     0.498802    0.833386    0.665514    0.000000
    99  Au    c     0.832361    0.166546    0.998968    0.000000
   100  Au    c     0.832361    0.166546    0.332060    0.000000
   101  Au    c     0.832225    0.166614    0.665514    0.000000
   102  Au    c     0.832225    0.500000    0.998899    0.000000
   103  Au    c     0.832225    0.500000    0.332128    0.000000
   104  Au    c     0.832211    0.500000    0.665514    0.000000
   105  Au    c     0.832361    0.833454    0.998968    0.000000
   106  Au    c     0.832361    0.833454    0.332060    0.000000
   107  Au    c     0.832225    0.833386    0.665514    0.000000
--------------------------------------------------------------------------------

  Final Cartesian lattice vectors (Angstroms) :

       12.231881    0.000000    0.000000
        0.000000   12.231881    0.000000
        0.000000    0.000000   12.231881


  Final cell parameters and derivatives :

--------------------------------------------------------------------------------
       a           12.231881 Angstrom     dE/de1(xx)     0.000132 eV/strain
       b           12.231881 Angstrom     dE/de2(yy)     0.000133 eV/strain
       c           12.231881 Angstrom     dE/de3(zz)     0.000132 eV/strain
       alpha       90.000000 Degrees      dE/de4(yz)    -0.000000 eV/strain
       beta        90.000000 Degrees      dE/de5(xz)     0.000000 eV/strain
       gamma       90.000000 Degrees      dE/de6(xy)     0.000000 eV/strain
--------------------------------------------------------------------------------

  Primitive cell volume =          1830.120839 Angs**3

  Density of cell =     19.123179 g/cm**3

  Non-primitive cell volume =          1830.120839 Angs**3


  Final internal derivatives :

--------------------------------------------------------------------------------
   No.  Atomic          a             b             c           Radius
        Label          (eV)          (eV)          (eV)        (eV/Angs)
--------------------------------------------------------------------------------
      1 Au    c       0.000000      0.000000      0.000000      0.000000
      2 Au    c       0.000051      0.000000     -0.000051      0.000000
      3 Au    c      -0.000009      0.000000     -0.000000      0.000000
      4 Au    c      -0.000005      0.000011     -0.000005      0.000000
      5 Au    c      -0.000005      0.000011      0.000005      0.000000
      6 Au    c      -0.000004      0.000002     -0.000000      0.000000
      7 Au    c      -0.000005     -0.000011     -0.000005      0.000000
      8 Au    c      -0.000005     -0.000011      0.000005      0.000000
      9 Au    c      -0.000004     -0.000002     -0.000000      0.000000
     10 Au    c      -0.000051      0.000000      0.000051      0.000000
     11 Au    c      -0.000051      0.000000     -0.000051      0.000000
     12 Au    c       0.000009      0.000000     -0.000000      0.000000
     13 Au    c       0.000005      0.000011     -0.000005      0.000000
     14 Au    c       0.000005      0.000011      0.000005      0.000000
     15 Au    c       0.000004      0.000002     -0.000000      0.000000
     16 Au    c       0.000005     -0.000011     -0.000005      0.000000
     17 Au    c       0.000005     -0.000011      0.000005      0.000000
     18 Au    c       0.000004     -0.000002     -0.000000      0.000000
     19 Au    c      -0.000000     -0.000000     -0.000009      0.000000
     20 Au    c      -0.000000     -0.000000      0.000009      0.000000
     21 Au    c      -0.000000      0.000000     -0.000000      0.000000
     22 Au    c      -0.000000      0.000002     -0.000004      0.000000
     23 Au    c      -0.000000      0.000002      0.000004      0.000000
     24 Au    c      -0.000000      0.000000     -0.000000      0.000000
     25 Au    c      -0.000000     -0.000002     -0.000004      0.000000
     26 Au    c      -0.000000     -0.000002      0.000004      0.000000
     27 Au    c      -0.000000     -0.000000     -0.000000      0.000000
     28 Au    c       0.000050     -0.000050     -0.000000      0.000000
     29 Au    c      -0.000005      0.000005      0.000011      0.000000
     30 Au    c      -0.000005      0.000005     -0.000011      0.000000
     31 Au    c      -0.000009     -0.000000     -0.000000      0.000000
     32 Au    c      -0.000004     -0.000000      0.000002      0.000000
     33 Au    c      -0.000004      0.000000     -0.000002      0.000000
     34 Au    c       0.000050      0.000050     -0.000000      0.000000
     35 Au    c      -0.000005     -0.000005      0.000011      0.000000
     36 Au    c      -0.000005     -0.000005     -0.000011      0.000000
     37 Au    c      -0.000050     -0.000050     -0.000000      0.000000
     38 Au    c       0.000005      0.000005      0.000011      0.000000
     39 Au    c       0.000005      0.000005     -0.000011      0.000000
     40 Au    c       0.000010     -0.000000     -0.000000      0.000000
     41 Au    c       0.000004     -0.000000      0.000002      0.000000
     42 Au    c       0.000004      0.000000     -0.000002      0.000000
     43 Au    c      -0.000050      0.000050     -0.000000      0.000000
     44 Au    c       0.000005     -0.000005      0.000011      0.000000
     45 Au    c       0.000005     -0.000005     -0.000011      0.000000
     46 Au    c      -0.000000      0.000009     -0.000000      0.000000
     47 Au    c      -0.000000      0.000004      0.000002      0.000000
     48 Au    c      -0.000000      0.000004     -0.000002      0.000000
     49 Au    c      -0.000000      0.000000     -0.000000      0.000000
     50 Au    c      -0.000000      0.000000      0.000000      0.000000
     51 Au    c      -0.000000      0.000000     -0.000000      0.000000
     52 Au    c      -0.000000     -0.000009     -0.000000      0.000000
     53 Au    c      -0.000000     -0.000004      0.000002      0.000000
     54 Au    c      -0.000000     -0.000004     -0.000002      0.000000
     55 Au    c      -0.000000      0.000000      0.000054      0.000000
     56 Au    c      -0.000000     -0.000000     -0.000054      0.000000
     57 Au    c      -0.000000      0.000054     -0.000000      0.000000
     58 Au    c      -0.000000     -0.000029     -0.000029      0.000000
     59 Au    c      -0.000000     -0.000029      0.000029      0.000000
     60 Au    c      -0.000000     -0.000054     -0.000000      0.000000
     61 Au    c      -0.000000      0.000029     -0.000029      0.000000
     62 Au    c      -0.000000      0.000029      0.000029      0.000000
     63 Au    c       0.000054      0.000000     -0.000000      0.000000
     64 Au    c      -0.000029     -0.000000     -0.000029      0.000000
     65 Au    c      -0.000029      0.000000      0.000029      0.000000
     66 Au    c      -0.000029     -0.000029     -0.000000      0.000000
     67 Au    c       0.000001      0.000001      0.000001      0.000000
     68 Au    c       0.000001      0.000001     -0.000001      0.000000
     69 Au    c      -0.000029      0.000029     -0.000000      0.000000
     70 Au    c       0.000001     -0.000001      0.000001      0.000000
     71 Au    c       0.000001     -0.000001     -0.000001      0.000000
     72 Au    c      -0.000054      0.000000     -0.000000      0.000000
     73 Au    c       0.000029     -0.000000     -0.000029      0.000000
     74 Au    c       0.000029     -0.000000      0.000029      0.000000
     75 Au    c       0.000029     -0.000029     -0.000000      0.000000
     76 Au    c      -0.000001      0.000001      0.000001      0.000000
     77 Au    c      -0.000001      0.000001     -0.000001      0.000000
     78 Au    c       0.000029      0.000029     -0.000000      0.000000
     79 Au    c      -0.000001     -0.000001      0.000001      0.000000
     80 Au    c      -0.000001     -0.000001     -0.000001      0.000000
     81 Au    c      -0.000000     -0.000050      0.000050      0.000000
     82 Au    c      -0.000000     -0.000050     -0.000050      0.000000
     83 Au    c      -0.000000      0.000009     -0.000000      0.000000
     84 Au    c      -0.000000     -0.000000     -0.000009      0.000000
     85 Au    c      -0.000000     -0.000000      0.000010      0.000000
     86 Au    c      -0.000000      0.000000     -0.000000      0.000000
     87 Au    c      -0.000000      0.000050      0.000050      0.000000
     88 Au    c      -0.000000      0.000050     -0.000050      0.000000
     89 Au    c      -0.000000     -0.000009     -0.000000      0.000000
     90 Au    c       0.000011      0.000005     -0.000005      0.000000
     91 Au    c       0.000011      0.000005      0.000005      0.000000
     92 Au    c       0.000002      0.000004     -0.000000      0.000000
     93 Au    c       0.000002      0.000000     -0.000004      0.000000
     94 Au    c       0.000002     -0.000000      0.000004      0.000000
     95 Au    c       0.000000      0.000000     -0.000000      0.000000
     96 Au    c       0.000011     -0.000005     -0.000005      0.000000
     97 Au    c       0.000011     -0.000005      0.000005      0.000000
     98 Au    c       0.000002     -0.000004     -0.000000      0.000000
     99 Au    c      -0.000011      0.000005     -0.000005      0.000000
    100 Au    c      -0.000011      0.000005      0.000005      0.000000
    101 Au    c      -0.000002      0.000004     -0.000000      0.000000
    102 Au    c      -0.000002      0.000000     -0.000004      0.000000
    103 Au    c      -0.000002      0.000000      0.000004      0.000000
    104 Au    c      -0.000000      0.000000     -0.000000      0.000000
    105 Au    c      -0.000011     -0.000005     -0.000005      0.000000
    106 Au    c      -0.000011     -0.000005      0.000005      0.000000
    107 Au    c      -0.000002     -0.000004     -0.000000      0.000000
--------------------------------------------------------------------------------
  Maximum abs         0.000054      0.000054      0.000054      0.000000
--------------------------------------------------------------------------------

  Comparison of initial and final structures : 

--------------------------------------------------------------------------------
  Parameter   Initial value   Final value   Difference    Units      Percent
--------------------------------------------------------------------------------
    Volume      1829.725322   1830.120839     0.395517    Angs**3      0.02
    a             12.231000     12.231881     0.000881    Angstroms    0.01
    b             12.231000     12.231881     0.000881    Angstroms    0.01
    c             12.231000     12.231881     0.000881    Angstroms    0.01
    alpha         90.000000     90.000000     0.000000    Degrees      0.00
    beta          90.000000     90.000000     0.000000    Degrees      0.00
    gamma         90.000000     90.000000     0.000000    Degrees      0.00
      1 x          0.000000      0.000000     0.000000    Fractional   0.00
      1 y          0.000000      0.000000     0.000000    Fractional   0.00
      1 z          0.000000      0.000000     0.000000    Fractional   0.00
      2 x          0.000000      0.000000     0.000000    Fractional   0.00
      2 y          0.000000      0.000000     0.000000    Fractional   0.00
      2 z          0.333333      0.331027     0.002306    Fractional   0.69
      3 x          0.000000      0.998709     0.998709    Fractional   0.00
      3 y          0.000000      0.000000     0.000000    Fractional   0.00
      3 z          0.666667      0.665514     0.001153    Fractional   0.17
      4 x          0.000000      0.998968     0.998968    Fractional   0.00
      4 y          0.333333      0.333153     0.000180    Fractional   0.05
      4 z          0.000000      0.998968     0.998968    Fractional   0.00
      5 x          0.000000      0.998968     0.998968    Fractional   0.00
      5 y          0.333333      0.333153     0.000180    Fractional   0.05
      5 z          0.333333      0.332060     0.001273    Fractional   0.38
      6 x          0.000000      0.998899     0.998899    Fractional   0.00
      6 y          0.333333      0.333288     0.000045    Fractional   0.01
      6 z          0.666667      0.665514     0.001153    Fractional   0.17
      7 x          0.000000      0.998968     0.998968    Fractional   0.00
      7 y          0.666667      0.666847     0.000180    Fractional   0.03
      7 z          0.000000      0.998968     0.998968    Fractional   0.00
      8 x          0.000000      0.998968     0.998968    Fractional   0.00
      8 y          0.666667      0.666847     0.000180    Fractional   0.03
      8 z          0.333333      0.332060     0.001273    Fractional   0.38
      9 x          0.000000      0.998899     0.998899    Fractional   0.00
      9 y          0.666667      0.666712     0.000045    Fractional   0.01
      9 z          0.666667      0.665514     0.001153    Fractional   0.17
     10 x          0.333333      0.331027     0.002306    Fractional   0.69
     10 y          0.000000      0.000000     0.000000    Fractional   0.00
     10 z          0.000000      0.000000     0.000000    Fractional   0.00
     11 x          0.333333      0.331027     0.002306    Fractional   0.69
     11 y          0.000000      0.000000     0.000000    Fractional   0.00
     11 z          0.333333      0.331027     0.002306    Fractional   0.69
     12 x          0.333333      0.332319     0.001014    Fractional   0.30
     12 y          0.000000      0.000000     0.000000    Fractional   0.00
     12 z          0.666667      0.665514     0.001153    Fractional   0.17
     13 x          0.333333      0.332060     0.001273    Fractional   0.38
     13 y          0.333333      0.333153     0.000180    Fractional   0.05
     13 z          0.000000      0.998968     0.998968    Fractional   0.00
     14 x          0.333333      0.332060     0.001273    Fractional   0.38
     14 y          0.333333      0.333153     0.000180    Fractional   0.05
     14 z          0.333333      0.332060     0.001273    Fractional   0.38
     15 x          0.333333      0.332128     0.001205    Fractional   0.36
     15 y          0.333333      0.333288     0.000045    Fractional   0.01
     15 z          0.666667      0.665514     0.001153    Fractional   0.17
     16 x          0.333333      0.332060     0.001273    Fractional   0.38
     16 y          0.666667      0.666847     0.000180    Fractional   0.03
     16 z          0.000000      0.998968     0.998968    Fractional   0.00
     17 x          0.333333      0.332060     0.001273    Fractional   0.38
     17 y          0.666667      0.666847     0.000180    Fractional   0.03
     17 z          0.333333      0.332060     0.001273    Fractional   0.38
     18 x          0.333333      0.332128     0.001205    Fractional   0.36
     18 y          0.666667      0.666712     0.000045    Fractional   0.01
     18 z          0.666667      0.665514     0.001153    Fractional   0.17
     19 x          0.666667      0.665514     0.001153    Fractional   0.17
     19 y          0.000000      0.000000     0.000000    Fractional   0.00
     19 z          0.000000      0.998709     0.998709    Fractional   0.00
     20 x          0.666667      0.665514     0.001153    Fractional   0.17
     20 y          0.000000      0.000000     0.000000    Fractional   0.00
     20 z          0.333333      0.332319     0.001014    Fractional   0.30
     21 x          0.666667      0.665514     0.001153    Fractional   0.17
     21 y          0.000000      0.000000     0.000000    Fractional   0.00
     21 z          0.666667      0.665514     0.001153    Fractional   0.17
     22 x          0.666667      0.665514     0.001153    Fractional   0.17
     22 y          0.333333      0.333288     0.000045    Fractional   0.01
     22 z          0.000000      0.998899     0.998899    Fractional   0.00
     23 x          0.666667      0.665514     0.001153    Fractional   0.17
     23 y          0.333333      0.333288     0.000045    Fractional   0.01
     23 z          0.333333      0.332128     0.001205    Fractional   0.36
     24 x          0.666667      0.665514     0.001153    Fractional   0.17
     24 y          0.333333      0.333302     0.000031    Fractional   0.01
     24 z          0.666667      0.665514     0.001153    Fractional   0.17
     25 x          0.666667      0.665514     0.001153    Fractional   0.17
     25 y          0.666667      0.666712     0.000045    Fractional   0.01
     25 z          0.000000      0.998899     0.998899    Fractional   0.00
     26 x          0.666667      0.665514     0.001153    Fractional   0.17
     26 y          0.666667      0.666712     0.000045    Fractional   0.01
     26 z          0.333333      0.332128     0.001205    Fractional   0.36
     27 x          0.666667      0.665514     0.001153    Fractional   0.17
     27 y          0.666667      0.666698     0.000031    Fractional   0.00
     27 z          0.666667      0.665514     0.001153    Fractional   0.17
     28 x          0.000000      1.000000     1.000000    Fractional   0.00
     28 y          0.166667      0.165514     0.001153    Fractional   0.69
     28 z          0.166667      0.165514     0.001153    Fractional   0.69
     29 x          0.000000      0.998968     0.998968    Fractional   0.00
     29 y          0.166667      0.166546     0.000121    Fractional   0.07
     29 z          0.500000      0.498666     0.001334    Fractional   0.27
     30 x          0.000000      0.998968     0.998968    Fractional   0.00
     30 y          0.166667      0.166546     0.000121    Fractional   0.07
     30 z          0.833333      0.832361     0.000972    Fractional   0.12
     31 x          0.000000      0.998709     0.998709    Fractional   0.00
     31 y          0.500000      0.500000     0.000000    Fractional   0.00
     31 z          0.166667      0.165514     0.001153    Fractional   0.69
     32 x          0.000000      0.998899     0.998899    Fractional   0.00
     32 y          0.500000      0.500000     0.000000    Fractional   0.00
     32 z          0.500000      0.498802     0.001198    Fractional   0.24
     33 x          0.000000      0.998899     0.998899    Fractional   0.00
     33 y          0.500000      0.500000     0.000000    Fractional   0.00
     33 z          0.833333      0.832225     0.001108    Fractional   0.13
     34 x          0.000000      1.000000     1.000000    Fractional   0.00
     34 y          0.833333      0.834486     0.001153    Fractional   0.14
     34 z          0.166667      0.165514     0.001153    Fractional   0.69
     35 x          0.000000      0.998968     0.998968    Fractional   0.00
     35 y          0.833333      0.833454     0.000121    Fractional   0.01
     35 z          0.500000      0.498666     0.001334    Fractional   0.27
     36 x          0.000000      0.998968     0.998968    Fractional   0.00
     36 y          0.833333      0.833454     0.000121    Fractional   0.01
     36 z          0.833333      0.832361     0.000972    Fractional   0.12
     37 x          0.333333      0.331027     0.002306    Fractional   0.69
     37 y          0.166667      0.165514     0.001153    Fractional   0.69
     37 z          0.166667      0.165514     0.001153    Fractional   0.69
     38 x          0.333333      0.332060     0.001273    Fractional   0.38
     38 y          0.166667      0.166546     0.000121    Fractional   0.07
     38 z          0.500000      0.498666     0.001334    Fractional   0.27
     39 x          0.333333      0.332060     0.001273    Fractional   0.38
     39 y          0.166667      0.166546     0.000121    Fractional   0.07
     39 z          0.833333      0.832361     0.000972    Fractional   0.12
     40 x          0.333333      0.332319     0.001014    Fractional   0.30
     40 y          0.500000      0.500000     0.000000    Fractional   0.00
     40 z          0.166667      0.165514     0.001153    Fractional   0.69
     41 x          0.333333      0.332128     0.001205    Fractional   0.36
     41 y          0.500000      0.500000     0.000000    Fractional   0.00
     41 z          0.500000      0.498802     0.001198    Fractional   0.24
     42 x          0.333333      0.332128     0.001205    Fractional   0.36
     42 y          0.500000      0.500000     0.000000    Fractional   0.00
     42 z          0.833333      0.832225     0.001108    Fractional   0.13
     43 x          0.333333      0.331027     0.002306    Fractional   0.69
     43 y          0.833333      0.834486     0.001153    Fractional   0.14
     43 z          0.166667      0.165514     0.001153    Fractional   0.69
     44 x          0.333333      0.332060     0.001273    Fractional   0.38
     44 y          0.833333      0.833454     0.000121    Fractional   0.01
     44 z          0.500000      0.498666     0.001334    Fractional   0.27
     45 x          0.333333      0.332060     0.001273    Fractional   0.38
     45 y          0.833333      0.833454     0.000121    Fractional   0.01
     45 z          0.833333      0.832361     0.000972    Fractional   0.12
     46 x          0.666667      0.665514     0.001153    Fractional   0.17
     46 y          0.166667      0.166805     0.000138    Fractional   0.08
     46 z          0.166667      0.165514     0.001153    Fractional   0.69
     47 x          0.666667      0.665514     0.001153    Fractional   0.17
     47 y          0.166667      0.166614     0.000053    Fractional   0.03
     47 z          0.500000      0.498802     0.001198    Fractional   0.24
     48 x          0.666667      0.665514     0.001153    Fractional   0.17
     48 y          0.166667      0.166614     0.000053    Fractional   0.03
     48 z          0.833333      0.832225     0.001108    Fractional   0.13
     49 x          0.666667      0.665514     0.001153    Fractional   0.17
     49 y          0.500000      0.500000     0.000000    Fractional   0.00
     49 z          0.166667      0.165514     0.001153    Fractional   0.69
     50 x          0.666667      0.665514     0.001153    Fractional   0.17
     50 y          0.500000      0.500000     0.000000    Fractional   0.00
     50 z          0.500000      0.498816     0.001184    Fractional   0.24
     51 x          0.666667      0.665514     0.001153    Fractional   0.17
     51 y          0.500000      0.500000     0.000000    Fractional   0.00
     51 z          0.833333      0.832211     0.001122    Fractional   0.13
     52 x          0.666667      0.665514     0.001153    Fractional   0.17
     52 y          0.833333      0.833195     0.000138    Fractional   0.02
     52 z          0.166667      0.165514     0.001153    Fractional   0.69
     53 x          0.666667      0.665514     0.001153    Fractional   0.17
     53 y          0.833333      0.833386     0.000053    Fractional   0.01
     53 z          0.500000      0.498802     0.001198    Fractional   0.24
     54 x          0.666667      0.665514     0.001153    Fractional   0.17
     54 y          0.833333      0.833386     0.000053    Fractional   0.01
     54 z          0.833333      0.832225     0.001108    Fractional   0.13
     55 x          0.166667      0.165514     0.001153    Fractional   0.69
     55 y          0.000000      0.000000     0.000000    Fractional   0.00
     55 z          0.500000      0.499497     0.000503    Fractional   0.10
     56 x          0.166667      0.165514     0.001153    Fractional   0.69
     56 y          0.000000      0.000000     0.000000    Fractional   0.00
     56 z          0.833333      0.831531     0.001802    Fractional   0.22
     57 x          0.166667      0.165514     0.001153    Fractional   0.69
     57 y          0.333333      0.333983     0.000650    Fractional   0.19
     57 z          0.166667      0.165514     0.001153    Fractional   0.69
     58 x          0.166667      0.165514     0.001153    Fractional   0.69
     58 y          0.333333      0.333055     0.000278    Fractional   0.08
     58 z          0.500000      0.498568     0.001432    Fractional   0.29
     59 x          0.166667      0.165514     0.001153    Fractional   0.69
     59 y          0.333333      0.333055     0.000278    Fractional   0.08
     59 z          0.833333      0.832459     0.000874    Fractional   0.10
     60 x          0.166667      0.165514     0.001153    Fractional   0.69
     60 y          0.666667      0.666017     0.000650    Fractional   0.10
     60 z          0.166667      0.165514     0.001153    Fractional   0.69
     61 x          0.166667      0.165514     0.001153    Fractional   0.69
     61 y          0.666667      0.666945     0.000278    Fractional   0.04
     61 z          0.500000      0.498568     0.001432    Fractional   0.29
     62 x          0.166667      0.165514     0.001153    Fractional   0.69
     62 y          0.666667      0.666945     0.000278    Fractional   0.04
     62 z          0.833333      0.832459     0.000874    Fractional   0.10
     63 x          0.500000      0.499497     0.000503    Fractional   0.10
     63 y          0.000000      0.000000     0.000000    Fractional   0.00
     63 z          0.166667      0.165514     0.001153    Fractional   0.69
     64 x          0.500000      0.498568     0.001432    Fractional   0.29
     64 y          0.000000      0.000000     0.000000    Fractional   0.00
     64 z          0.500000      0.498568     0.001432    Fractional   0.29
     65 x          0.500000      0.498568     0.001432    Fractional   0.29
     65 y          0.000000      0.000000     0.000000    Fractional   0.00
     65 z          0.833333      0.832459     0.000874    Fractional   0.10
     66 x          0.500000      0.498568     0.001432    Fractional   0.29
     66 y          0.333333      0.333055     0.000278    Fractional   0.08
     66 z          0.166667      0.165514     0.001153    Fractional   0.69
     67 x          0.500000      0.498793     0.001207    Fractional   0.24
     67 y          0.333333      0.333279     0.000054    Fractional   0.02
     67 z          0.500000      0.498793     0.001207    Fractional   0.24
     68 x          0.500000      0.498793     0.001207    Fractional   0.24
     68 y          0.333333      0.333279     0.000054    Fractional   0.02
     68 z          0.833333      0.832235     0.001098    Fractional   0.13
     69 x          0.500000      0.498568     0.001432    Fractional   0.29
     69 y          0.666667      0.666945     0.000278    Fractional   0.04
     69 z          0.166667      0.165514     0.001153    Fractional   0.69
     70 x          0.500000      0.498793     0.001207    Fractional   0.24
     70 y          0.666667      0.666721     0.000054    Fractional   0.01
     70 z          0.500000      0.498793     0.001207    Fractional   0.24
     71 x          0.500000      0.498793     0.001207    Fractional   0.24
     71 y          0.666667      0.666721     0.000054    Fractional   0.01
     71 z          0.833333      0.832235     0.001098    Fractional   0.13
     72 x          0.833333      0.831531     0.001802    Fractional   0.22
     72 y          0.000000      0.000000     0.000000    Fractional   0.00
     72 z          0.166667      0.165514     0.001153    Fractional   0.69
     73 x          0.833333      0.832459     0.000874    Fractional   0.10
     73 y          0.000000      0.000000     0.000000    Fractional   0.00
     73 z          0.500000      0.498568     0.001432    Fractional   0.29
     74 x          0.833333      0.832459     0.000874    Fractional   0.10
     74 y          0.000000      0.000000     0.000000    Fractional   0.00
     74 z          0.833333      0.832459     0.000874    Fractional   0.10
     75 x          0.833333      0.832459     0.000874    Fractional   0.10
     75 y          0.333333      0.333055     0.000278    Fractional   0.08
     75 z          0.166667      0.165514     0.001153    Fractional   0.69
     76 x          0.833333      0.832235     0.001098    Fractional   0.13
     76 y          0.333333      0.333279     0.000054    Fractional   0.02
     76 z          0.500000      0.498793     0.001207    Fractional   0.24
     77 x          0.833333      0.832235     0.001098    Fractional   0.13
     77 y          0.333333      0.333279     0.000054    Fractional   0.02
     77 z          0.833333      0.832235     0.001098    Fractional   0.13
     78 x          0.833333      0.832459     0.000874    Fractional   0.10
     78 y          0.666667      0.666945     0.000278    Fractional   0.04
     78 z          0.166667      0.165514     0.001153    Fractional   0.69
     79 x          0.833333      0.832235     0.001098    Fractional   0.13
     79 y          0.666667      0.666721     0.000054    Fractional   0.01
     79 z          0.500000      0.498793     0.001207    Fractional   0.24
     80 x          0.833333      0.832235     0.001098    Fractional   0.13
     80 y          0.666667      0.666721     0.000054    Fractional   0.01
     80 z          0.833333      0.832235     0.001098    Fractional   0.13
     81 x          0.166667      0.165514     0.001153    Fractional   0.69
     81 y          0.166667      0.165514     0.001153    Fractional   0.69
     81 z          0.000000      1.000000     1.000000    Fractional   0.00
     82 x          0.166667      0.165514     0.001153    Fractional   0.69
     82 y          0.166667      0.165514     0.001153    Fractional   0.69
     82 z          0.333333      0.331027     0.002306    Fractional   0.69
     83 x          0.166667      0.165514     0.001153    Fractional   0.69
     83 y          0.166667      0.166805     0.000138    Fractional   0.08
     83 z          0.666667      0.665514     0.001153    Fractional   0.17
     84 x          0.166667      0.165514     0.001153    Fractional   0.69
     84 y          0.500000      0.500000     0.000000    Fractional   0.00
     84 z          0.000000      0.998709     0.998709    Fractional   0.00
     85 x          0.166667      0.165514     0.001153    Fractional   0.69
     85 y          0.500000      0.500000     0.000000    Fractional   0.00
     85 z          0.333333      0.332319     0.001014    Fractional   0.30
     86 x          0.166667      0.165514     0.001153    Fractional   0.69
     86 y          0.500000      0.500000     0.000000    Fractional   0.00
     86 z          0.666667      0.665514     0.001153    Fractional   0.17
     87 x          0.166667      0.165514     0.001153    Fractional   0.69
     87 y          0.833333      0.834486     0.001153    Fractional   0.14
     87 z          0.000000      1.000000     1.000000    Fractional   0.00
     88 x          0.166667      0.165514     0.001153    Fractional   0.69
     88 y          0.833333      0.834486     0.001153    Fractional   0.14
     88 z          0.333333      0.331027     0.002306    Fractional   0.69
     89 x          0.166667      0.165514     0.001153    Fractional   0.69
     89 y          0.833333      0.833195     0.000138    Fractional   0.02
     89 z          0.666667      0.665514     0.001153    Fractional   0.17
     90 x          0.500000      0.498666     0.001334    Fractional   0.27
     90 y          0.166667      0.166546     0.000121    Fractional   0.07
     90 z          0.000000      0.998968     0.998968    Fractional   0.00
     91 x          0.500000      0.498666     0.001334    Fractional   0.27
     91 y          0.166667      0.166546     0.000121    Fractional   0.07
     91 z          0.333333      0.332060     0.001273    Fractional   0.38
     92 x          0.500000      0.498802     0.001198    Fractional   0.24
     92 y          0.166667      0.166614     0.000053    Fractional   0.03
     92 z          0.666667      0.665514     0.001153    Fractional   0.17
     93 x          0.500000      0.498802     0.001198    Fractional   0.24
     93 y          0.500000      0.500000     0.000000    Fractional   0.00
     93 z          0.000000      0.998899     0.998899    Fractional   0.00
     94 x          0.500000      0.498802     0.001198    Fractional   0.24
     94 y          0.500000      0.500000     0.000000    Fractional   0.00
     94 z          0.333333      0.332128     0.001205    Fractional   0.36
     95 x          0.500000      0.498816     0.001184    Fractional   0.24
     95 y          0.500000      0.500000     0.000000    Fractional   0.00
     95 z          0.666667      0.665514     0.001153    Fractional   0.17
     96 x          0.500000      0.498666     0.001334    Fractional   0.27
     96 y          0.833333      0.833454     0.000121    Fractional   0.01
     96 z          0.000000      0.998968     0.998968    Fractional   0.00
     97 x          0.500000      0.498666     0.001334    Fractional   0.27
     97 y          0.833333      0.833454     0.000121    Fractional   0.01
     97 z          0.333333      0.332060     0.001273    Fractional   0.38
     98 x          0.500000      0.498802     0.001198    Fractional   0.24
     98 y          0.833333      0.833386     0.000053    Fractional   0.01
     98 z          0.666667      0.665514     0.001153    Fractional   0.17
     99 x          0.833333      0.832361     0.000972    Fractional   0.12
     99 y          0.166667      0.166546     0.000121    Fractional   0.07
     99 z          0.000000      0.998968     0.998968    Fractional   0.00
    100 x          0.833333      0.832361     0.000972    Fractional   0.12
    100 y          0.166667      0.166546     0.000121    Fractional   0.07
    100 z          0.333333      0.332060     0.001273    Fractional   0.38
    101 x          0.833333      0.832225     0.001108    Fractional   0.13
    101 y          0.166667      0.166614     0.000053    Fractional   0.03
    101 z          0.666667      0.665514     0.001153    Fractional   0.17
    102 x          0.833333      0.832225     0.001108    Fractional   0.13
    102 y          0.500000      0.500000     0.000000    Fractional   0.00
    102 z          0.000000      0.998899     0.998899    Fractional   0.00
    103 x          0.833333      0.832225     0.001108    Fractional   0.13
    103 y          0.500000      0.500000     0.000000    Fractional   0.00
    103 z          0.333333      0.332128     0.001205    Fractional   0.36
    104 x          0.833333      0.832211     0.001122    Fractional   0.13
    104 y          0.500000      0.500000     0.000000    Fractional   0.00
    104 z          0.666667      0.665514     0.001153    Fractional   0.17
    105 x          0.833333      0.832361     0.000972    Fractional   0.12
    105 y          0.833333      0.833454     0.000121    Fractional   0.01
    105 z          0.000000      0.998968     0.998968    Fractional   0.00
    106 x          0.833333      0.832361     0.000972    Fractional   0.12
    106 y          0.833333      0.833454     0.000121    Fractional   0.01
    106 z          0.333333      0.332060     0.001273    Fractional   0.38
    107 x          0.833333      0.832225     0.001108    Fractional   0.13
    107 y          0.833333      0.833386     0.000053    Fractional   0.01
    107 z          0.666667      0.665514     0.001153    Fractional   0.17
--------------------------------------------------------------------------------


  Distance calculation :


  Cutoff for distances  =      2.000000 Angstroms

--------------------------------------------------------------------------------
  Asymmetric unit site  Full lattice sites    No.  Distance      No.  Distance
      No.   At.No.            At.No.                (Angs)             (Angs) 
--------------------------------------------------------------------------------



  Time to end of optimisation =       0.7552 seconds


  Peak dynamic memory used =       2.98 MB 


  Timing analysis for GULP :

--------------------------------------------------------------------------------
  Task / Subroutine                                          Time (Seconds)
--------------------------------------------------------------------------------
  Calculation of real space energy and derivatives                0.7374
  Calculation and manipulation of Hessian matrix                  0.0001
  Calculation of matrix inversion                                 0.0074
--------------------------------------------------------------------------------
  Total CPU time                                                  0.7553
--------------------------------------------------------------------------------


  Job Finished at 17:28.31  6th January    2019                               

