********************************************************************************
*                       GENERAL UTILITY LATTICE PROGRAM                        *
*                                 Julian Gale                                  *
*                       Curtin Institute for Computation                       *
*                           Department of Chemistry                            *
*                    Curtin University, Western Australia                      *
********************************************************************************
* Version = 5.1.1 * Last modified =  24th November 2018                        *
********************************************************************************
*  optimise     - perform optimisation run                                     *
*  conp         - constant pressure calculation                                *
*  distance     - calculate distances                                          *
*  compare      - compare initial and final structures                         *
********************************************************************************

  Job Started  at 17:28.31  6th January    2019                               

  Number of CPUs =     1


  Total number of configurations input =      1

********************************************************************************
*  Input for Configuration =   1                                               *
********************************************************************************

  Formula = Au255                                                       

  Number of irreducible atoms/shells =     255


  Total number atoms/shells =     255

  Dimensionality = 3               :  Bulk   



  Cartesian lattice vectors (Angstroms) :

       16.308000    0.000000    0.000000
        0.000000   16.308000    0.000000
        0.000000    0.000000   16.308000

  Cell parameters (Angstroms/Degrees):

  a =      16.3080    alpha =  90.0000
  b =      16.3080    beta  =  90.0000
  c =      16.3080    gamma =  90.0000

  Initial cell volume =        4337.126690 Angs**3

  Temperature of configuration =  0.000     K 

  Pressure of configuration =         0.000 GPa 

  Fractional coordinates of asymmetric unit :

--------------------------------------------------------------------------------
   No.  Atomic       x           y          z         Charge      Occupancy
        Label      (Frac)      (Frac)     (Frac)        (e)         (Frac)  
--------------------------------------------------------------------------------
      1 Au    c    0.000000    0.000000    0.000000     0.00000    1.000000    
      2 Au    c    0.000000 *  0.000000 *  0.250000 *   0.00000    1.000000    
      3 Au    c    0.000000 *  0.000000 *  0.500000 *   0.00000    1.000000    
      4 Au    c    0.000000 *  0.000000 *  0.750000 *   0.00000    1.000000    
      5 Au    c    0.000000 *  0.250000 *  0.000000 *   0.00000    1.000000    
      6 Au    c    0.000000 *  0.250000 *  0.250000 *   0.00000    1.000000    
      7 Au    c    0.000000 *  0.250000 *  0.500000 *   0.00000    1.000000    
      8 Au    c    0.000000 *  0.250000 *  0.750000 *   0.00000    1.000000    
      9 Au    c    0.000000 *  0.500000 *  0.000000 *   0.00000    1.000000    
     10 Au    c    0.000000 *  0.500000 *  0.250000 *   0.00000    1.000000    
     11 Au    c    0.000000 *  0.500000 *  0.500000 *   0.00000    1.000000    
     12 Au    c    0.000000 *  0.500000 *  0.750000 *   0.00000    1.000000    
     13 Au    c    0.000000 *  0.750000 *  0.000000 *   0.00000    1.000000    
     14 Au    c    0.000000 *  0.750000 *  0.250000 *   0.00000    1.000000    
     15 Au    c    0.000000 *  0.750000 *  0.500000 *   0.00000    1.000000    
     16 Au    c    0.000000 *  0.750000 *  0.750000 *   0.00000    1.000000    
     17 Au    c    0.250000 *  0.000000 *  0.000000 *   0.00000    1.000000    
     18 Au    c    0.250000 *  0.000000 *  0.250000 *   0.00000    1.000000    
     19 Au    c    0.250000 *  0.000000 *  0.500000 *   0.00000    1.000000    
     20 Au    c    0.250000 *  0.000000 *  0.750000 *   0.00000    1.000000    
     21 Au    c    0.250000 *  0.250000 *  0.000000 *   0.00000    1.000000    
     22 Au    c    0.250000 *  0.250000 *  0.250000 *   0.00000    1.000000    
     23 Au    c    0.250000 *  0.250000 *  0.500000 *   0.00000    1.000000    
     24 Au    c    0.250000 *  0.250000 *  0.750000 *   0.00000    1.000000    
     25 Au    c    0.250000 *  0.500000 *  0.000000 *   0.00000    1.000000    
     26 Au    c    0.250000 *  0.500000 *  0.250000 *   0.00000    1.000000    
     27 Au    c    0.250000 *  0.500000 *  0.500000 *   0.00000    1.000000    
     28 Au    c    0.250000 *  0.500000 *  0.750000 *   0.00000    1.000000    
     29 Au    c    0.250000 *  0.750000 *  0.000000 *   0.00000    1.000000    
     30 Au    c    0.250000 *  0.750000 *  0.250000 *   0.00000    1.000000    
     31 Au    c    0.250000 *  0.750000 *  0.500000 *   0.00000    1.000000    
     32 Au    c    0.250000 *  0.750000 *  0.750000 *   0.00000    1.000000    
     33 Au    c    0.500000 *  0.000000 *  0.000000 *   0.00000    1.000000    
     34 Au    c    0.500000 *  0.000000 *  0.250000 *   0.00000    1.000000    
     35 Au    c    0.500000 *  0.000000 *  0.500000 *   0.00000    1.000000    
     36 Au    c    0.500000 *  0.000000 *  0.750000 *   0.00000    1.000000    
     37 Au    c    0.500000 *  0.250000 *  0.000000 *   0.00000    1.000000    
     38 Au    c    0.500000 *  0.250000 *  0.250000 *   0.00000    1.000000    
     39 Au    c    0.500000 *  0.250000 *  0.500000 *   0.00000    1.000000    
     40 Au    c    0.500000 *  0.250000 *  0.750000 *   0.00000    1.000000    
     41 Au    c    0.500000 *  0.500000 *  0.000000 *   0.00000    1.000000    
     42 Au    c    0.500000 *  0.500000 *  0.250000 *   0.00000    1.000000    
     43 Au    c    0.500000 *  0.500000 *  0.500000 *   0.00000    1.000000    
     44 Au    c    0.500000 *  0.500000 *  0.750000 *   0.00000    1.000000    
     45 Au    c    0.500000 *  0.750000 *  0.000000 *   0.00000    1.000000    
     46 Au    c    0.500000 *  0.750000 *  0.250000 *   0.00000    1.000000    
     47 Au    c    0.500000 *  0.750000 *  0.500000 *   0.00000    1.000000    
     48 Au    c    0.500000 *  0.750000 *  0.750000 *   0.00000    1.000000    
     49 Au    c    0.750000 *  0.000000 *  0.000000 *   0.00000    1.000000    
     50 Au    c    0.750000 *  0.000000 *  0.250000 *   0.00000    1.000000    
     51 Au    c    0.750000 *  0.000000 *  0.500000 *   0.00000    1.000000    
     52 Au    c    0.750000 *  0.000000 *  0.750000 *   0.00000    1.000000    
     53 Au    c    0.750000 *  0.250000 *  0.000000 *   0.00000    1.000000    
     54 Au    c    0.750000 *  0.250000 *  0.250000 *   0.00000    1.000000    
     55 Au    c    0.750000 *  0.250000 *  0.500000 *   0.00000    1.000000    
     56 Au    c    0.750000 *  0.250000 *  0.750000 *   0.00000    1.000000    
     57 Au    c    0.750000 *  0.500000 *  0.000000 *   0.00000    1.000000    
     58 Au    c    0.750000 *  0.500000 *  0.250000 *   0.00000    1.000000    
     59 Au    c    0.750000 *  0.500000 *  0.500000 *   0.00000    1.000000    
     60 Au    c    0.750000 *  0.500000 *  0.750000 *   0.00000    1.000000    
     61 Au    c    0.750000 *  0.750000 *  0.000000 *   0.00000    1.000000    
     62 Au    c    0.750000 *  0.750000 *  0.250000 *   0.00000    1.000000    
     63 Au    c    0.750000 *  0.750000 *  0.500000 *   0.00000    1.000000    
     64 Au    c    0.750000 *  0.750000 *  0.750000 *   0.00000    1.000000    
     65 Au    c    0.000000 *  0.125000 *  0.125000 *   0.00000    1.000000    
     66 Au    c    0.000000 *  0.125000 *  0.375000 *   0.00000    1.000000    
     67 Au    c    0.000000 *  0.125000 *  0.625000 *   0.00000    1.000000    
     68 Au    c    0.000000 *  0.125000 *  0.875000 *   0.00000    1.000000    
     69 Au    c    0.000000 *  0.375000 *  0.125000 *   0.00000    1.000000    
     70 Au    c    0.000000 *  0.375000 *  0.375000 *   0.00000    1.000000    
     71 Au    c    0.000000 *  0.375000 *  0.625000 *   0.00000    1.000000    
     72 Au    c    0.000000 *  0.375000 *  0.875000 *   0.00000    1.000000    
     73 Au    c    0.000000 *  0.625000 *  0.125000 *   0.00000    1.000000    
     74 Au    c    0.000000 *  0.625000 *  0.375000 *   0.00000    1.000000    
     75 Au    c    0.000000 *  0.625000 *  0.625000 *   0.00000    1.000000    
     76 Au    c    0.000000 *  0.625000 *  0.875000 *   0.00000    1.000000    
     77 Au    c    0.000000 *  0.875000 *  0.125000 *   0.00000    1.000000    
     78 Au    c    0.000000 *  0.875000 *  0.375000 *   0.00000    1.000000    
     79 Au    c    0.000000 *  0.875000 *  0.625000 *   0.00000    1.000000    
     80 Au    c    0.000000 *  0.875000 *  0.875000 *   0.00000    1.000000    
     81 Au    c    0.250000 *  0.125000 *  0.125000 *   0.00000    1.000000    
     82 Au    c    0.250000 *  0.125000 *  0.375000 *   0.00000    1.000000    
     83 Au    c    0.250000 *  0.125000 *  0.625000 *   0.00000    1.000000    
     84 Au    c    0.250000 *  0.125000 *  0.875000 *   0.00000    1.000000    
     85 Au    c    0.250000 *  0.375000 *  0.125000 *   0.00000    1.000000    
     86 Au    c    0.250000 *  0.375000 *  0.375000 *   0.00000    1.000000    
     87 Au    c    0.250000 *  0.375000 *  0.625000 *   0.00000    1.000000    
     88 Au    c    0.250000 *  0.375000 *  0.875000 *   0.00000    1.000000    
     89 Au    c    0.250000 *  0.625000 *  0.125000 *   0.00000    1.000000    
     90 Au    c    0.250000 *  0.625000 *  0.375000 *   0.00000    1.000000    
     91 Au    c    0.250000 *  0.625000 *  0.625000 *   0.00000    1.000000    
     92 Au    c    0.250000 *  0.625000 *  0.875000 *   0.00000    1.000000    
     93 Au    c    0.250000 *  0.875000 *  0.125000 *   0.00000    1.000000    
     94 Au    c    0.250000 *  0.875000 *  0.375000 *   0.00000    1.000000    
     95 Au    c    0.250000 *  0.875000 *  0.625000 *   0.00000    1.000000    
     96 Au    c    0.250000 *  0.875000 *  0.875000 *   0.00000    1.000000    
     97 Au    c    0.500000 *  0.125000 *  0.125000 *   0.00000    1.000000    
     98 Au    c    0.500000 *  0.125000 *  0.375000 *   0.00000    1.000000    
     99 Au    c    0.500000 *  0.125000 *  0.625000 *   0.00000    1.000000    
    100 Au    c    0.500000 *  0.125000 *  0.875000 *   0.00000    1.000000    
    101 Au    c    0.500000 *  0.375000 *  0.125000 *   0.00000    1.000000    
    102 Au    c    0.500000 *  0.375000 *  0.375000 *   0.00000    1.000000    
    103 Au    c    0.500000 *  0.375000 *  0.625000 *   0.00000    1.000000    
    104 Au    c    0.500000 *  0.375000 *  0.875000 *   0.00000    1.000000    
    105 Au    c    0.500000 *  0.625000 *  0.125000 *   0.00000    1.000000    
    106 Au    c    0.500000 *  0.625000 *  0.375000 *   0.00000    1.000000    
    107 Au    c    0.500000 *  0.625000 *  0.625000 *   0.00000    1.000000    
    108 Au    c    0.500000 *  0.625000 *  0.875000 *   0.00000    1.000000    
    109 Au    c    0.500000 *  0.875000 *  0.125000 *   0.00000    1.000000    
    110 Au    c    0.500000 *  0.875000 *  0.375000 *   0.00000    1.000000    
    111 Au    c    0.500000 *  0.875000 *  0.625000 *   0.00000    1.000000    
    112 Au    c    0.500000 *  0.875000 *  0.875000 *   0.00000    1.000000    
    113 Au    c    0.750000 *  0.125000 *  0.125000 *   0.00000    1.000000    
    114 Au    c    0.750000 *  0.125000 *  0.375000 *   0.00000    1.000000    
    115 Au    c    0.750000 *  0.125000 *  0.625000 *   0.00000    1.000000    
    116 Au    c    0.750000 *  0.125000 *  0.875000 *   0.00000    1.000000    
    117 Au    c    0.750000 *  0.375000 *  0.125000 *   0.00000    1.000000    
    118 Au    c    0.750000 *  0.375000 *  0.375000 *   0.00000    1.000000    
    119 Au    c    0.750000 *  0.375000 *  0.625000 *   0.00000    1.000000    
    120 Au    c    0.750000 *  0.375000 *  0.875000 *   0.00000    1.000000    
    121 Au    c    0.750000 *  0.625000 *  0.125000 *   0.00000    1.000000    
    122 Au    c    0.750000 *  0.625000 *  0.375000 *   0.00000    1.000000    
    123 Au    c    0.750000 *  0.625000 *  0.625000 *   0.00000    1.000000    
    124 Au    c    0.750000 *  0.625000 *  0.875000 *   0.00000    1.000000    
    125 Au    c    0.750000 *  0.875000 *  0.125000 *   0.00000    1.000000    
    126 Au    c    0.750000 *  0.875000 *  0.375000 *   0.00000    1.000000    
    127 Au    c    0.750000 *  0.875000 *  0.625000 *   0.00000    1.000000    
    128 Au    c    0.750000 *  0.875000 *  0.875000 *   0.00000    1.000000    
    129 Au    c    0.125000 *  0.000000 *  0.375000 *   0.00000    1.000000    
    130 Au    c    0.125000 *  0.000000 *  0.625000 *   0.00000    1.000000    
    131 Au    c    0.125000 *  0.000000 *  0.875000 *   0.00000    1.000000    
    132 Au    c    0.125000 *  0.250000 *  0.125000 *   0.00000    1.000000    
    133 Au    c    0.125000 *  0.250000 *  0.375000 *   0.00000    1.000000    
    134 Au    c    0.125000 *  0.250000 *  0.625000 *   0.00000    1.000000    
    135 Au    c    0.125000 *  0.250000 *  0.875000 *   0.00000    1.000000    
    136 Au    c    0.125000 *  0.500000 *  0.125000 *   0.00000    1.000000    
    137 Au    c    0.125000 *  0.500000 *  0.375000 *   0.00000    1.000000    
    138 Au    c    0.125000 *  0.500000 *  0.625000 *   0.00000    1.000000    
    139 Au    c    0.125000 *  0.500000 *  0.875000 *   0.00000    1.000000    
    140 Au    c    0.125000 *  0.750000 *  0.125000 *   0.00000    1.000000    
    141 Au    c    0.125000 *  0.750000 *  0.375000 *   0.00000    1.000000    
    142 Au    c    0.125000 *  0.750000 *  0.625000 *   0.00000    1.000000    
    143 Au    c    0.125000 *  0.750000 *  0.875000 *   0.00000    1.000000    
    144 Au    c    0.375000 *  0.000000 *  0.125000 *   0.00000    1.000000    
    145 Au    c    0.375000 *  0.000000 *  0.375000 *   0.00000    1.000000    
    146 Au    c    0.375000 *  0.000000 *  0.625000 *   0.00000    1.000000    
    147 Au    c    0.375000 *  0.000000 *  0.875000 *   0.00000    1.000000    
    148 Au    c    0.375000 *  0.250000 *  0.125000 *   0.00000    1.000000    
    149 Au    c    0.375000 *  0.250000 *  0.375000 *   0.00000    1.000000    
    150 Au    c    0.375000 *  0.250000 *  0.625000 *   0.00000    1.000000    
    151 Au    c    0.375000 *  0.250000 *  0.875000 *   0.00000    1.000000    
    152 Au    c    0.375000 *  0.500000 *  0.125000 *   0.00000    1.000000    
    153 Au    c    0.375000 *  0.500000 *  0.375000 *   0.00000    1.000000    
    154 Au    c    0.375000 *  0.500000 *  0.625000 *   0.00000    1.000000    
    155 Au    c    0.375000 *  0.500000 *  0.875000 *   0.00000    1.000000    
    156 Au    c    0.375000 *  0.750000 *  0.125000 *   0.00000    1.000000    
    157 Au    c    0.375000 *  0.750000 *  0.375000 *   0.00000    1.000000    
    158 Au    c    0.375000 *  0.750000 *  0.625000 *   0.00000    1.000000    
    159 Au    c    0.375000 *  0.750000 *  0.875000 *   0.00000    1.000000    
    160 Au    c    0.625000 *  0.000000 *  0.125000 *   0.00000    1.000000    
    161 Au    c    0.625000 *  0.000000 *  0.375000 *   0.00000    1.000000    
    162 Au    c    0.625000 *  0.000000 *  0.625000 *   0.00000    1.000000    
    163 Au    c    0.625000 *  0.000000 *  0.875000 *   0.00000    1.000000    
    164 Au    c    0.625000 *  0.250000 *  0.125000 *   0.00000    1.000000    
    165 Au    c    0.625000 *  0.250000 *  0.375000 *   0.00000    1.000000    
    166 Au    c    0.625000 *  0.250000 *  0.625000 *   0.00000    1.000000    
    167 Au    c    0.625000 *  0.250000 *  0.875000 *   0.00000    1.000000    
    168 Au    c    0.625000 *  0.500000 *  0.125000 *   0.00000    1.000000    
    169 Au    c    0.625000 *  0.500000 *  0.375000 *   0.00000    1.000000    
    170 Au    c    0.625000 *  0.500000 *  0.625000 *   0.00000    1.000000    
    171 Au    c    0.625000 *  0.500000 *  0.875000 *   0.00000    1.000000    
    172 Au    c    0.625000 *  0.750000 *  0.125000 *   0.00000    1.000000    
    173 Au    c    0.625000 *  0.750000 *  0.375000 *   0.00000    1.000000    
    174 Au    c    0.625000 *  0.750000 *  0.625000 *   0.00000    1.000000    
    175 Au    c    0.625000 *  0.750000 *  0.875000 *   0.00000    1.000000    
    176 Au    c    0.875000 *  0.000000 *  0.125000 *   0.00000    1.000000    
    177 Au    c    0.875000 *  0.000000 *  0.375000 *   0.00000    1.000000    
    178 Au    c    0.875000 *  0.000000 *  0.625000 *   0.00000    1.000000    
    179 Au    c    0.875000 *  0.000000 *  0.875000 *   0.00000    1.000000    
    180 Au    c    0.875000 *  0.250000 *  0.125000 *   0.00000    1.000000    
    181 Au    c    0.875000 *  0.250000 *  0.375000 *   0.00000    1.000000    
    182 Au    c    0.875000 *  0.250000 *  0.625000 *   0.00000    1.000000    
    183 Au    c    0.875000 *  0.250000 *  0.875000 *   0.00000    1.000000    
    184 Au    c    0.875000 *  0.500000 *  0.125000 *   0.00000    1.000000    
    185 Au    c    0.875000 *  0.500000 *  0.375000 *   0.00000    1.000000    
    186 Au    c    0.875000 *  0.500000 *  0.625000 *   0.00000    1.000000    
    187 Au    c    0.875000 *  0.500000 *  0.875000 *   0.00000    1.000000    
    188 Au    c    0.875000 *  0.750000 *  0.125000 *   0.00000    1.000000    
    189 Au    c    0.875000 *  0.750000 *  0.375000 *   0.00000    1.000000    
    190 Au    c    0.875000 *  0.750000 *  0.625000 *   0.00000    1.000000    
    191 Au    c    0.875000 *  0.750000 *  0.875000 *   0.00000    1.000000    
    192 Au    c    0.125000 *  0.125000 *  0.000000 *   0.00000    1.000000    
    193 Au    c    0.125000 *  0.125000 *  0.250000 *   0.00000    1.000000    
    194 Au    c    0.125000 *  0.125000 *  0.500000 *   0.00000    1.000000    
    195 Au    c    0.125000 *  0.125000 *  0.750000 *   0.00000    1.000000    
    196 Au    c    0.125000 *  0.375000 *  0.000000 *   0.00000    1.000000    
    197 Au    c    0.125000 *  0.375000 *  0.250000 *   0.00000    1.000000    
    198 Au    c    0.125000 *  0.375000 *  0.500000 *   0.00000    1.000000    
    199 Au    c    0.125000 *  0.375000 *  0.750000 *   0.00000    1.000000    
    200 Au    c    0.125000 *  0.625000 *  0.000000 *   0.00000    1.000000    
    201 Au    c    0.125000 *  0.625000 *  0.250000 *   0.00000    1.000000    
    202 Au    c    0.125000 *  0.625000 *  0.500000 *   0.00000    1.000000    
    203 Au    c    0.125000 *  0.625000 *  0.750000 *   0.00000    1.000000    
    204 Au    c    0.125000 *  0.875000 *  0.000000 *   0.00000    1.000000    
    205 Au    c    0.125000 *  0.875000 *  0.250000 *   0.00000    1.000000    
    206 Au    c    0.125000 *  0.875000 *  0.500000 *   0.00000    1.000000    
    207 Au    c    0.125000 *  0.875000 *  0.750000 *   0.00000    1.000000    
    208 Au    c    0.375000 *  0.125000 *  0.000000 *   0.00000    1.000000    
    209 Au    c    0.375000 *  0.125000 *  0.250000 *   0.00000    1.000000    
    210 Au    c    0.375000 *  0.125000 *  0.500000 *   0.00000    1.000000    
    211 Au    c    0.375000 *  0.125000 *  0.750000 *   0.00000    1.000000    
    212 Au    c    0.375000 *  0.375000 *  0.000000 *   0.00000    1.000000    
    213 Au    c    0.375000 *  0.375000 *  0.250000 *   0.00000    1.000000    
    214 Au    c    0.375000 *  0.375000 *  0.500000 *   0.00000    1.000000    
    215 Au    c    0.375000 *  0.375000 *  0.750000 *   0.00000    1.000000    
    216 Au    c    0.375000 *  0.625000 *  0.000000 *   0.00000    1.000000    
    217 Au    c    0.375000 *  0.625000 *  0.250000 *   0.00000    1.000000    
    218 Au    c    0.375000 *  0.625000 *  0.500000 *   0.00000    1.000000    
    219 Au    c    0.375000 *  0.625000 *  0.750000 *   0.00000    1.000000    
    220 Au    c    0.375000 *  0.875000 *  0.000000 *   0.00000    1.000000    
    221 Au    c    0.375000 *  0.875000 *  0.250000 *   0.00000    1.000000    
    222 Au    c    0.375000 *  0.875000 *  0.500000 *   0.00000    1.000000    
    223 Au    c    0.375000 *  0.875000 *  0.750000 *   0.00000    1.000000    
    224 Au    c    0.625000 *  0.125000 *  0.000000 *   0.00000    1.000000    
    225 Au    c    0.625000 *  0.125000 *  0.250000 *   0.00000    1.000000    
    226 Au    c    0.625000 *  0.125000 *  0.500000 *   0.00000    1.000000    
    227 Au    c    0.625000 *  0.125000 *  0.750000 *   0.00000    1.000000    
    228 Au    c    0.625000 *  0.375000 *  0.000000 *   0.00000    1.000000    
    229 Au    c    0.625000 *  0.375000 *  0.250000 *   0.00000    1.000000    
    230 Au    c    0.625000 *  0.375000 *  0.500000 *   0.00000    1.000000    
    231 Au    c    0.625000 *  0.375000 *  0.750000 *   0.00000    1.000000    
    232 Au    c    0.625000 *  0.625000 *  0.000000 *   0.00000    1.000000    
    233 Au    c    0.625000 *  0.625000 *  0.250000 *   0.00000    1.000000    
    234 Au    c    0.625000 *  0.625000 *  0.500000 *   0.00000    1.000000    
    235 Au    c    0.625000 *  0.625000 *  0.750000 *   0.00000    1.000000    
    236 Au    c    0.625000 *  0.875000 *  0.000000 *   0.00000    1.000000    
    237 Au    c    0.625000 *  0.875000 *  0.250000 *   0.00000    1.000000    
    238 Au    c    0.625000 *  0.875000 *  0.500000 *   0.00000    1.000000    
    239 Au    c    0.625000 *  0.875000 *  0.750000 *   0.00000    1.000000    
    240 Au    c    0.875000 *  0.125000 *  0.000000 *   0.00000    1.000000    
    241 Au    c    0.875000 *  0.125000 *  0.250000 *   0.00000    1.000000    
    242 Au    c    0.875000 *  0.125000 *  0.500000 *   0.00000    1.000000    
    243 Au    c    0.875000 *  0.125000 *  0.750000 *   0.00000    1.000000    
    244 Au    c    0.875000 *  0.375000 *  0.000000 *   0.00000    1.000000    
    245 Au    c    0.875000 *  0.375000 *  0.250000 *   0.00000    1.000000    
    246 Au    c    0.875000 *  0.375000 *  0.500000 *   0.00000    1.000000    
    247 Au    c    0.875000 *  0.375000 *  0.750000 *   0.00000    1.000000    
    248 Au    c    0.875000 *  0.625000 *  0.000000 *   0.00000    1.000000    
    249 Au    c    0.875000 *  0.625000 *  0.250000 *   0.00000    1.000000    
    250 Au    c    0.875000 *  0.625000 *  0.500000 *   0.00000    1.000000    
    251 Au    c    0.875000 *  0.625000 *  0.750000 *   0.00000    1.000000    
    252 Au    c    0.875000 *  0.875000 *  0.000000 *   0.00000    1.000000    
    253 Au    c    0.875000 *  0.875000 *  0.250000 *   0.00000    1.000000    
    254 Au    c    0.875000 *  0.875000 *  0.500000 *   0.00000    1.000000    
    255 Au    c    0.875000 *  0.875000 *  0.750000 *   0.00000    1.000000    
--------------------------------------------------------------------------------



  Distance calculation :


  Cutoff for distances  =      2.000000 Angstroms

--------------------------------------------------------------------------------
  Asymmetric unit site  Full lattice sites    No.  Distance      No.  Distance
      No.   At.No.            At.No.                (Angs)             (Angs) 
--------------------------------------------------------------------------------



********************************************************************************
*  General input information                                                   *
********************************************************************************

  Species output for all configurations : 

--------------------------------------------------------------------------------
  Species    Type    Atomic    Atomic    Charge       Radii (Angs)     Library
                     Number     Mass       (e)     Cova   Ionic  VDW   Symbol
--------------------------------------------------------------------------------
    Au       Core       79     196.97   0.000000   1.500  0.000  1.850          
--------------------------------------------------------------------------------


  Lattice summation method               =    Ewald          (3-D)
                                         =    Parry          (2-D)
                                         =    Saunders et al (1-D)
  Accuracy factor for lattice sums       =   12.000


  Time limit = Infinity

  Maximum range for interatomic potentials =    100000.000000 Angstroms

  General interatomic potentials :

--------------------------------------------------------------------------------
Atom  Types   Potential      Parameter       Value         Units   Cutoffs(Ang)
  1     2                                                            Min /  Max 
--------------------------------------------------------------------------------
Au   c Au   c Lennard       Lennard-Jones A  214108.20    eV*Ang^m  0.000 40.000
                            Lennard-Jones B  625.48200    eV*Ang^n  
                            Exponent m        12          None
                            Exponent n         6          None
--------------------------------------------------------------------------------

********************************************************************************
*  Output for configuration   1                                                *
********************************************************************************


  Components of energy : 

--------------------------------------------------------------------------------
  Interatomic potentials     =        -998.73100252 eV    
  Monopole - monopole (real) =           0.00000000 eV    
  Monopole - monopole (recip)=           0.00000000 eV    
  Monopole - monopole (total)=           0.00000000 eV    
--------------------------------------------------------------------------------
  Total lattice energy       =        -998.73100252 eV    
--------------------------------------------------------------------------------
  Total lattice energy       =          -96362.2747 kJ/(mole unit cells)
--------------------------------------------------------------------------------


  Number of variables =      768

  Maximum number of calculations  =          1000
  Maximum Hessian update interval =            10
  Maximum step size               =   1.000000000
  Maximum parameter tolerance     =   0.000010000
  Maximum function  tolerance     =   0.000010000
  Maximum gradient  tolerance     =   0.001000000
  Maximum gradient  component     =   0.010000000

  Symmetry not applied to optimisation

  Cell parameters to be optimised using strains

  Newton-Raphson optimiser to be used

  BFGS hessian update to be used

  Lower half triangular hessian to be used

  Start of bulk optimisation :

  Cycle:      0 Energy:      -998.731003  Gnorm:      0.034061  CPU:    0.459
  ** Hessian calculated **
  Cycle:      1 Energy:      -998.787456  Gnorm:      0.001101  CPU:    1.150
  Cycle:      2 Energy:      -998.787489  Gnorm:      0.000028  CPU:    1.633


  **** Optimisation achieved ****


  Final energy =    -998.78748920 eV
  Final Gnorm  =       0.00000069

  Components of energy : 

--------------------------------------------------------------------------------
  Interatomic potentials     =        -998.78748920 eV    
  Monopole - monopole (real) =           0.00000000 eV    
  Monopole - monopole (recip)=           0.00000000 eV    
  Monopole - monopole (total)=           0.00000000 eV    
--------------------------------------------------------------------------------
  Total lattice energy       =        -998.78748920 eV    
--------------------------------------------------------------------------------
  Total lattice energy       =          -96367.7248 kJ/(mole unit cells)
--------------------------------------------------------------------------------

  Final fractional coordinates of atoms :

--------------------------------------------------------------------------------
   No.  Atomic        x           y          z          Radius
        Label       (Frac)      (Frac)     (Frac)       (Angs) 
--------------------------------------------------------------------------------
     1  Au    c     0.000000    0.000000    0.000000    0.000000
     2  Au    c     0.000000    0.000000    0.248249    0.000000
     3  Au    c     0.999069    0.000000    0.499234    0.000000
     4  Au    c     0.999069    0.000000    0.749015    0.000000
     5  Au    c     0.999240    0.249870    0.999240    0.000000
     6  Au    c     0.999240    0.249870    0.249008    0.000000
     7  Au    c     0.999146    0.249965    0.499063    0.000000
     8  Au    c     0.999146    0.249965    0.749186    0.000000
     9  Au    c     0.999091    0.500000    0.999091    0.000000
    10  Au    c     0.999091    0.500000    0.249158    0.000000
    11  Au    c     0.999138    0.500000    0.499107    0.000000
    12  Au    c     0.999138    0.500000    0.749142    0.000000
    13  Au    c     0.999240    0.750130    0.999240    0.000000
    14  Au    c     0.999240    0.750130    0.249008    0.000000
    15  Au    c     0.999146    0.750035    0.499063    0.000000
    16  Au    c     0.999146    0.750035    0.749186    0.000000
    17  Au    c     0.248249    0.000000    1.000000    0.000000
    18  Au    c     0.248249    0.000000    0.248249    0.000000
    19  Au    c     0.249180    0.000000    0.499234    0.000000
    20  Au    c     0.249180    0.000000    0.749015    0.000000
    21  Au    c     0.249008    0.249870    0.999240    0.000000
    22  Au    c     0.249008    0.249870    0.249008    0.000000
    23  Au    c     0.249103    0.249965    0.499063    0.000000
    24  Au    c     0.249103    0.249965    0.749186    0.000000
    25  Au    c     0.249158    0.500000    0.999091    0.000000
    26  Au    c     0.249158    0.500000    0.249158    0.000000
    27  Au    c     0.249111    0.500000    0.499107    0.000000
    28  Au    c     0.249111    0.500000    0.749142    0.000000
    29  Au    c     0.249008    0.750130    0.999240    0.000000
    30  Au    c     0.249008    0.750130    0.249008    0.000000
    31  Au    c     0.249103    0.750035    0.499063    0.000000
    32  Au    c     0.249103    0.750035    0.749186    0.000000
    33  Au    c     0.499234    0.000000    0.999069    0.000000
    34  Au    c     0.499234    0.000000    0.249180    0.000000
    35  Au    c     0.499055    0.000000    0.499055    0.000000
    36  Au    c     0.499055    0.000000    0.749194    0.000000
    37  Au    c     0.499063    0.249965    0.999146    0.000000
    38  Au    c     0.499063    0.249965    0.249103    0.000000
    39  Au    c     0.499102    0.249979    0.499102    0.000000
    40  Au    c     0.499102    0.249979    0.749147    0.000000
    41  Au    c     0.499107    0.500000    0.999138    0.000000
    42  Au    c     0.499107    0.500000    0.249111    0.000000
    43  Au    c     0.499113    0.500000    0.499113    0.000000
    44  Au    c     0.499113    0.500000    0.749136    0.000000
    45  Au    c     0.499063    0.750035    0.999146    0.000000
    46  Au    c     0.499063    0.750035    0.249103    0.000000
    47  Au    c     0.499102    0.750021    0.499102    0.000000
    48  Au    c     0.499102    0.750021    0.749147    0.000000
    49  Au    c     0.749015    0.000000    0.999069    0.000000
    50  Au    c     0.749015    0.000000    0.249180    0.000000
    51  Au    c     0.749194    0.000000    0.499055    0.000000
    52  Au    c     0.749194    0.000000    0.749194    0.000000
    53  Au    c     0.749186    0.249965    0.999146    0.000000
    54  Au    c     0.749186    0.249965    0.249103    0.000000
    55  Au    c     0.749147    0.249979    0.499102    0.000000
    56  Au    c     0.749147    0.249979    0.749147    0.000000
    57  Au    c     0.749142    0.500000    0.999138    0.000000
    58  Au    c     0.749142    0.500000    0.249111    0.000000
    59  Au    c     0.749136    0.500000    0.499113    0.000000
    60  Au    c     0.749136    0.500000    0.749136    0.000000
    61  Au    c     0.749186    0.750035    0.999146    0.000000
    62  Au    c     0.749186    0.750035    0.249103    0.000000
    63  Au    c     0.749147    0.750021    0.499102    0.000000
    64  Au    c     0.749147    0.750021    0.749147    0.000000
    65  Au    c     0.000000    0.124124    0.124124    0.000000
    66  Au    c     0.999240    0.124884    0.373994    0.000000
    67  Au    c     0.999091    0.125034    0.624124    0.000000
    68  Au    c     0.999240    0.124884    0.874255    0.000000
    69  Au    c     0.999069    0.375109    0.124124    0.000000
    70  Au    c     0.999146    0.374938    0.374090    0.000000
    71  Au    c     0.999138    0.374983    0.624124    0.000000
    72  Au    c     0.999146    0.374938    0.874159    0.000000
    73  Au    c     0.999069    0.624891    0.124124    0.000000
    74  Au    c     0.999146    0.625062    0.374090    0.000000
    75  Au    c     0.999138    0.625017    0.624124    0.000000
    76  Au    c     0.999146    0.625062    0.874159    0.000000
    77  Au    c     0.000000    0.875876    0.124124    0.000000
    78  Au    c     0.999240    0.875116    0.373994    0.000000
    79  Au    c     0.999091    0.874966    0.624124    0.000000
    80  Au    c     0.999240    0.875116    0.874255    0.000000
    81  Au    c     0.248249    0.124124    0.124124    0.000000
    82  Au    c     0.249008    0.124884    0.373994    0.000000
    83  Au    c     0.249158    0.125034    0.624124    0.000000
    84  Au    c     0.249008    0.124884    0.874255    0.000000
    85  Au    c     0.249180    0.375109    0.124124    0.000000
    86  Au    c     0.249103    0.374938    0.374090    0.000000
    87  Au    c     0.249111    0.374983    0.624124    0.000000
    88  Au    c     0.249103    0.374938    0.874159    0.000000
    89  Au    c     0.249180    0.624891    0.124124    0.000000
    90  Au    c     0.249103    0.625062    0.374090    0.000000
    91  Au    c     0.249111    0.625017    0.624124    0.000000
    92  Au    c     0.249103    0.625062    0.874159    0.000000
    93  Au    c     0.248249    0.875876    0.124124    0.000000
    94  Au    c     0.249008    0.875116    0.373994    0.000000
    95  Au    c     0.249158    0.874966    0.624124    0.000000
    96  Au    c     0.249008    0.875116    0.874255    0.000000
    97  Au    c     0.499234    0.125056    0.124124    0.000000
    98  Au    c     0.499063    0.124978    0.374090    0.000000
    99  Au    c     0.499107    0.124986    0.624124    0.000000
   100  Au    c     0.499063    0.124978    0.874159    0.000000
   101  Au    c     0.499055    0.374931    0.124124    0.000000
   102  Au    c     0.499102    0.374977    0.374104    0.000000
   103  Au    c     0.499113    0.374988    0.624124    0.000000
   104  Au    c     0.499102    0.374977    0.874145    0.000000
   105  Au    c     0.499055    0.625069    0.124124    0.000000
   106  Au    c     0.499102    0.625023    0.374104    0.000000
   107  Au    c     0.499113    0.625012    0.624124    0.000000
   108  Au    c     0.499102    0.625023    0.874145    0.000000
   109  Au    c     0.499234    0.874944    0.124124    0.000000
   110  Au    c     0.499063    0.875022    0.374090    0.000000
   111  Au    c     0.499107    0.875014    0.624124    0.000000
   112  Au    c     0.499063    0.875022    0.874159    0.000000
   113  Au    c     0.749015    0.125056    0.124124    0.000000
   114  Au    c     0.749186    0.124978    0.374090    0.000000
   115  Au    c     0.749142    0.124986    0.624124    0.000000
   116  Au    c     0.749186    0.124978    0.874159    0.000000
   117  Au    c     0.749194    0.374931    0.124124    0.000000
   118  Au    c     0.749147    0.374977    0.374104    0.000000
   119  Au    c     0.749136    0.374988    0.624124    0.000000
   120  Au    c     0.749147    0.374977    0.874145    0.000000
   121  Au    c     0.749194    0.625069    0.124124    0.000000
   122  Au    c     0.749147    0.625023    0.374104    0.000000
   123  Au    c     0.749136    0.625012    0.624124    0.000000
   124  Au    c     0.749147    0.625023    0.874145    0.000000
   125  Au    c     0.749015    0.874944    0.124124    0.000000
   126  Au    c     0.749186    0.875022    0.374090    0.000000
   127  Au    c     0.749142    0.875014    0.624124    0.000000
   128  Au    c     0.749186    0.875022    0.874159    0.000000
   129  Au    c     0.124124    0.000000    0.374642    0.000000
   130  Au    c     0.124124    0.000000    0.624124    0.000000
   131  Au    c     0.124124    0.000000    0.873607    0.000000
   132  Au    c     0.124124    0.250518    0.124124    0.000000
   133  Au    c     0.124124    0.249762    0.373887    0.000000
   134  Au    c     0.124124    0.250038    0.624124    0.000000
   135  Au    c     0.124124    0.249762    0.874362    0.000000
   136  Au    c     0.124124    0.500000    0.124124    0.000000
   137  Au    c     0.124124    0.500000    0.374163    0.000000
   138  Au    c     0.124124    0.500000    0.624124    0.000000
   139  Au    c     0.124124    0.500000    0.874086    0.000000
   140  Au    c     0.124124    0.749482    0.124124    0.000000
   141  Au    c     0.124124    0.750238    0.373887    0.000000
   142  Au    c     0.124124    0.749962    0.624124    0.000000
   143  Au    c     0.124124    0.750238    0.874362    0.000000
   144  Au    c     0.374642    0.000000    0.124124    0.000000
   145  Au    c     0.373887    0.000000    0.373887    0.000000
   146  Au    c     0.374163    0.000000    0.624124    0.000000
   147  Au    c     0.373887    0.000000    0.874362    0.000000
   148  Au    c     0.373887    0.249762    0.124124    0.000000
   149  Au    c     0.374060    0.249935    0.374060    0.000000
   150  Au    c     0.374109    0.249985    0.624124    0.000000
   151  Au    c     0.374060    0.249935    0.874189    0.000000
   152  Au    c     0.374163    0.500000    0.124124    0.000000
   153  Au    c     0.374109    0.500000    0.374109    0.000000
   154  Au    c     0.374109    0.500000    0.624124    0.000000
   155  Au    c     0.374109    0.500000    0.874140    0.000000
   156  Au    c     0.373887    0.750238    0.124124    0.000000
   157  Au    c     0.374060    0.750065    0.374060    0.000000
   158  Au    c     0.374109    0.750015    0.624124    0.000000
   159  Au    c     0.374060    0.750065    0.874189    0.000000
   160  Au    c     0.624124    0.000000    0.124124    0.000000
   161  Au    c     0.624124    0.000000    0.374163    0.000000
   162  Au    c     0.624124    0.000000    0.624124    0.000000
   163  Au    c     0.624124    0.000000    0.874086    0.000000
   164  Au    c     0.624124    0.250038    0.124124    0.000000
   165  Au    c     0.624124    0.249985    0.374109    0.000000
   166  Au    c     0.624124    0.249985    0.624124    0.000000
   167  Au    c     0.624124    0.249985    0.874140    0.000000
   168  Au    c     0.624124    0.500000    0.124124    0.000000
   169  Au    c     0.624124    0.500000    0.374109    0.000000
   170  Au    c     0.624124    0.500000    0.624124    0.000000
   171  Au    c     0.624124    0.500000    0.874140    0.000000
   172  Au    c     0.624124    0.749962    0.124124    0.000000
   173  Au    c     0.624124    0.750015    0.374109    0.000000
   174  Au    c     0.624124    0.750015    0.624124    0.000000
   175  Au    c     0.624124    0.750015    0.874140    0.000000
   176  Au    c     0.873607    0.000000    0.124124    0.000000
   177  Au    c     0.874362    0.000000    0.373887    0.000000
   178  Au    c     0.874086    0.000000    0.624124    0.000000
   179  Au    c     0.874362    0.000000    0.874362    0.000000
   180  Au    c     0.874362    0.249762    0.124124    0.000000
   181  Au    c     0.874189    0.249935    0.374060    0.000000
   182  Au    c     0.874140    0.249985    0.624124    0.000000
   183  Au    c     0.874189    0.249935    0.874189    0.000000
   184  Au    c     0.874086    0.500000    0.124124    0.000000
   185  Au    c     0.874140    0.500000    0.374109    0.000000
   186  Au    c     0.874140    0.500000    0.624124    0.000000
   187  Au    c     0.874140    0.500000    0.874140    0.000000
   188  Au    c     0.874362    0.750238    0.124124    0.000000
   189  Au    c     0.874189    0.750065    0.374060    0.000000
   190  Au    c     0.874140    0.750015    0.624124    0.000000
   191  Au    c     0.874189    0.750065    0.874189    0.000000
   192  Au    c     0.124124    0.124124    0.000000    0.000000
   193  Au    c     0.124124    0.124124    0.248249    0.000000
   194  Au    c     0.124124    0.125056    0.499234    0.000000
   195  Au    c     0.124124    0.125056    0.749015    0.000000
   196  Au    c     0.124124    0.375109    0.999069    0.000000
   197  Au    c     0.124124    0.375109    0.249180    0.000000
   198  Au    c     0.124124    0.374931    0.499055    0.000000
   199  Au    c     0.124124    0.374931    0.749194    0.000000
   200  Au    c     0.124124    0.624891    0.999069    0.000000
   201  Au    c     0.124124    0.624891    0.249180    0.000000
   202  Au    c     0.124124    0.625069    0.499055    0.000000
   203  Au    c     0.124124    0.625069    0.749194    0.000000
   204  Au    c     0.124124    0.875876    0.000000    0.000000
   205  Au    c     0.124124    0.875876    0.248249    0.000000
   206  Au    c     0.124124    0.874944    0.499234    0.000000
   207  Au    c     0.124124    0.874944    0.749015    0.000000
   208  Au    c     0.373994    0.124884    0.999240    0.000000
   209  Au    c     0.373994    0.124884    0.249008    0.000000
   210  Au    c     0.374090    0.124978    0.499063    0.000000
   211  Au    c     0.374090    0.124978    0.749186    0.000000
   212  Au    c     0.374090    0.374938    0.999146    0.000000
   213  Au    c     0.374090    0.374938    0.249103    0.000000
   214  Au    c     0.374104    0.374977    0.499102    0.000000
   215  Au    c     0.374104    0.374977    0.749147    0.000000
   216  Au    c     0.374090    0.625062    0.999146    0.000000
   217  Au    c     0.374090    0.625062    0.249103    0.000000
   218  Au    c     0.374104    0.625023    0.499102    0.000000
   219  Au    c     0.374104    0.625023    0.749147    0.000000
   220  Au    c     0.373994    0.875116    0.999240    0.000000
   221  Au    c     0.373994    0.875116    0.249008    0.000000
   222  Au    c     0.374090    0.875022    0.499063    0.000000
   223  Au    c     0.374090    0.875022    0.749186    0.000000
   224  Au    c     0.624124    0.125034    0.999091    0.000000
   225  Au    c     0.624124    0.125034    0.249158    0.000000
   226  Au    c     0.624124    0.124986    0.499107    0.000000
   227  Au    c     0.624124    0.124986    0.749142    0.000000
   228  Au    c     0.624124    0.374983    0.999138    0.000000
   229  Au    c     0.624124    0.374983    0.249111    0.000000
   230  Au    c     0.624124    0.374988    0.499113    0.000000
   231  Au    c     0.624124    0.374988    0.749136    0.000000
   232  Au    c     0.624124    0.625017    0.999138    0.000000
   233  Au    c     0.624124    0.625017    0.249111    0.000000
   234  Au    c     0.624124    0.625012    0.499113    0.000000
   235  Au    c     0.624124    0.625012    0.749136    0.000000
   236  Au    c     0.624124    0.874966    0.999091    0.000000
   237  Au    c     0.624124    0.874966    0.249158    0.000000
   238  Au    c     0.624124    0.875014    0.499107    0.000000
   239  Au    c     0.624124    0.875014    0.749142    0.000000
   240  Au    c     0.874255    0.124884    0.999240    0.000000
   241  Au    c     0.874255    0.124884    0.249008    0.000000
   242  Au    c     0.874159    0.124978    0.499063    0.000000
   243  Au    c     0.874159    0.124978    0.749186    0.000000
   244  Au    c     0.874159    0.374938    0.999146    0.000000
   245  Au    c     0.874159    0.374938    0.249103    0.000000
   246  Au    c     0.874145    0.374977    0.499102    0.000000
   247  Au    c     0.874145    0.374977    0.749147    0.000000
   248  Au    c     0.874159    0.625062    0.999146    0.000000
   249  Au    c     0.874159    0.625062    0.249103    0.000000
   250  Au    c     0.874145    0.625023    0.499102    0.000000
   251  Au    c     0.874145    0.625023    0.749147    0.000000
   252  Au    c     0.874255    0.875116    0.999240    0.000000
   253  Au    c     0.874255    0.875116    0.249008    0.000000
   254  Au    c     0.874159    0.875022    0.499063    0.000000
   255  Au    c     0.874159    0.875022    0.749186    0.000000
--------------------------------------------------------------------------------

  Final Cartesian lattice vectors (Angstroms) :

       16.310318    0.000000    0.000000
        0.000000   16.310318    0.000000
        0.000000    0.000000   16.310318


  Final cell parameters and derivatives :

--------------------------------------------------------------------------------
       a           16.310318 Angstrom     dE/de1(xx)     0.000209 eV/strain
       b           16.310318 Angstrom     dE/de2(yy)     0.000209 eV/strain
       c           16.310318 Angstrom     dE/de3(zz)     0.000209 eV/strain
       alpha       90.000000 Degrees      dE/de4(yz)    -0.000000 eV/strain
       beta        90.000000 Degrees      dE/de5(xz)    -0.000000 eV/strain
       gamma       90.000000 Degrees      dE/de6(xy)    -0.000000 eV/strain
--------------------------------------------------------------------------------

  Primitive cell volume =          4338.976022 Angs**3

  Density of cell =     19.222462 g/cm**3

  Non-primitive cell volume =          4338.976022 Angs**3


  Final internal derivatives :

--------------------------------------------------------------------------------
   No.  Atomic          a             b             c           Radius
        Label          (eV)          (eV)          (eV)        (eV/Angs)
--------------------------------------------------------------------------------
      1 Au    c       0.000000      0.000000      0.000000      0.000000
      2 Au    c       0.000060      0.000000     -0.000060      0.000000
      3 Au    c      -0.000005      0.000000      0.000006      0.000000
      4 Au    c      -0.000005      0.000000     -0.000006      0.000000
      5 Au    c      -0.000006      0.000011     -0.000006      0.000000
      6 Au    c      -0.000006      0.000011      0.000006      0.000000
      7 Au    c      -0.000002      0.000000      0.000003      0.000000
      8 Au    c      -0.000002      0.000000     -0.000003      0.000000
      9 Au    c       0.000000     -0.000000      0.000000      0.000000
     10 Au    c       0.000000     -0.000000     -0.000000      0.000000
     11 Au    c      -0.000000      0.000000      0.000001      0.000000
     12 Au    c      -0.000000      0.000000     -0.000001      0.000000
     13 Au    c      -0.000006     -0.000011     -0.000006      0.000000
     14 Au    c      -0.000006     -0.000011      0.000006      0.000000
     15 Au    c      -0.000002     -0.000000      0.000003      0.000000
     16 Au    c      -0.000002     -0.000000     -0.000003      0.000000
     17 Au    c      -0.000060      0.000000      0.000060      0.000000
     18 Au    c      -0.000060      0.000000     -0.000060      0.000000
     19 Au    c       0.000005      0.000000      0.000006      0.000000
     20 Au    c       0.000005      0.000000     -0.000006      0.000000
     21 Au    c       0.000006      0.000011     -0.000006      0.000000
     22 Au    c       0.000006      0.000011      0.000006      0.000000
     23 Au    c       0.000002      0.000000      0.000003      0.000000
     24 Au    c       0.000002      0.000000     -0.000003      0.000000
     25 Au    c      -0.000000     -0.000000      0.000000      0.000000
     26 Au    c      -0.000000     -0.000000     -0.000000      0.000000
     27 Au    c       0.000000     -0.000000      0.000001      0.000000
     28 Au    c       0.000000     -0.000000     -0.000001      0.000000
     29 Au    c       0.000006     -0.000011     -0.000006      0.000000
     30 Au    c       0.000006     -0.000011      0.000006      0.000000
     31 Au    c       0.000002     -0.000000      0.000003      0.000000
     32 Au    c       0.000002     -0.000000     -0.000003      0.000000
     33 Au    c       0.000006      0.000000     -0.000005      0.000000
     34 Au    c       0.000006     -0.000000      0.000005      0.000000
     35 Au    c       0.000013      0.000000      0.000013      0.000000
     36 Au    c       0.000013      0.000000     -0.000013      0.000000
     37 Au    c       0.000003      0.000000     -0.000002      0.000000
     38 Au    c       0.000003      0.000000      0.000002      0.000000
     39 Au    c       0.000000     -0.000000      0.000000      0.000000
     40 Au    c       0.000000     -0.000000     -0.000000      0.000000
     41 Au    c       0.000001     -0.000000     -0.000000      0.000000
     42 Au    c       0.000001     -0.000000      0.000000      0.000000
     43 Au    c       0.000000     -0.000000      0.000000      0.000000
     44 Au    c       0.000000     -0.000000     -0.000000      0.000000
     45 Au    c       0.000003     -0.000000     -0.000002      0.000000
     46 Au    c       0.000003     -0.000000      0.000002      0.000000
     47 Au    c       0.000000      0.000000      0.000000      0.000000
     48 Au    c       0.000000      0.000000     -0.000000      0.000000
     49 Au    c      -0.000006      0.000000     -0.000005      0.000000
     50 Au    c      -0.000006     -0.000000      0.000005      0.000000
     51 Au    c      -0.000013      0.000000      0.000013      0.000000
     52 Au    c      -0.000013      0.000000     -0.000013      0.000000
     53 Au    c      -0.000003      0.000000     -0.000002      0.000000
     54 Au    c      -0.000003      0.000000      0.000002      0.000000
     55 Au    c      -0.000000     -0.000000      0.000000      0.000000
     56 Au    c      -0.000000     -0.000000     -0.000000      0.000000
     57 Au    c      -0.000001     -0.000000     -0.000000      0.000000
     58 Au    c      -0.000001     -0.000000      0.000000      0.000000
     59 Au    c      -0.000000     -0.000000      0.000000      0.000000
     60 Au    c      -0.000000     -0.000000     -0.000000      0.000000
     61 Au    c      -0.000003     -0.000000     -0.000002      0.000000
     62 Au    c      -0.000003     -0.000000      0.000002      0.000000
     63 Au    c      -0.000000      0.000000      0.000000      0.000000
     64 Au    c      -0.000000      0.000000     -0.000000      0.000000
     65 Au    c       0.000060     -0.000060     -0.000000      0.000000
     66 Au    c      -0.000006      0.000006      0.000011      0.000000
     67 Au    c       0.000000     -0.000000      0.000000      0.000000
     68 Au    c      -0.000006      0.000006     -0.000011      0.000000
     69 Au    c      -0.000005      0.000006      0.000000      0.000000
     70 Au    c      -0.000002      0.000003      0.000000      0.000000
     71 Au    c      -0.000000      0.000001      0.000000      0.000000
     72 Au    c      -0.000002      0.000003     -0.000000      0.000000
     73 Au    c      -0.000005     -0.000006      0.000000      0.000000
     74 Au    c      -0.000002     -0.000003      0.000000      0.000000
     75 Au    c      -0.000000     -0.000001      0.000000      0.000000
     76 Au    c      -0.000002     -0.000003     -0.000000      0.000000
     77 Au    c       0.000060      0.000060     -0.000000      0.000000
     78 Au    c      -0.000006     -0.000006      0.000011      0.000000
     79 Au    c       0.000000      0.000000      0.000000      0.000000
     80 Au    c      -0.000006     -0.000006     -0.000011      0.000000
     81 Au    c      -0.000060     -0.000060     -0.000000      0.000000
     82 Au    c       0.000006      0.000006      0.000011      0.000000
     83 Au    c      -0.000000     -0.000000      0.000000      0.000000
     84 Au    c       0.000006      0.000006     -0.000011      0.000000
     85 Au    c       0.000005      0.000006      0.000000      0.000000
     86 Au    c       0.000002      0.000003      0.000000      0.000000
     87 Au    c       0.000000      0.000001      0.000000      0.000000
     88 Au    c       0.000002      0.000003     -0.000000      0.000000
     89 Au    c       0.000005     -0.000006      0.000000      0.000000
     90 Au    c       0.000002     -0.000003      0.000000      0.000000
     91 Au    c       0.000000     -0.000001      0.000000      0.000000
     92 Au    c       0.000002     -0.000003     -0.000000      0.000000
     93 Au    c      -0.000060      0.000060     -0.000000      0.000000
     94 Au    c       0.000006     -0.000006      0.000011      0.000000
     95 Au    c      -0.000000      0.000000      0.000000      0.000000
     96 Au    c       0.000006     -0.000006     -0.000011      0.000000
     97 Au    c       0.000006      0.000005      0.000000      0.000000
     98 Au    c       0.000003      0.000002      0.000000      0.000000
     99 Au    c       0.000001      0.000000      0.000000      0.000000
    100 Au    c       0.000003      0.000002     -0.000000      0.000000
    101 Au    c       0.000013      0.000013     -0.000000      0.000000
    102 Au    c       0.000000      0.000000     -0.000000      0.000000
    103 Au    c       0.000000      0.000000     -0.000000      0.000000
    104 Au    c       0.000000      0.000000      0.000000      0.000000
    105 Au    c       0.000013     -0.000013     -0.000000      0.000000
    106 Au    c       0.000000     -0.000000     -0.000000      0.000000
    107 Au    c       0.000000     -0.000000     -0.000000      0.000000
    108 Au    c       0.000000     -0.000000      0.000000      0.000000
    109 Au    c       0.000006     -0.000005      0.000000      0.000000
    110 Au    c       0.000003     -0.000002      0.000000      0.000000
    111 Au    c       0.000001     -0.000000      0.000000      0.000000
    112 Au    c       0.000003     -0.000002     -0.000000      0.000000
    113 Au    c      -0.000006      0.000005      0.000000      0.000000
    114 Au    c      -0.000003      0.000002      0.000000      0.000000
    115 Au    c      -0.000001      0.000000      0.000000      0.000000
    116 Au    c      -0.000003      0.000002     -0.000000      0.000000
    117 Au    c      -0.000013      0.000013     -0.000000      0.000000
    118 Au    c      -0.000000      0.000000     -0.000000      0.000000
    119 Au    c      -0.000000      0.000000     -0.000000      0.000000
    120 Au    c      -0.000000      0.000000      0.000000      0.000000
    121 Au    c      -0.000013     -0.000013     -0.000000      0.000000
    122 Au    c      -0.000000     -0.000000     -0.000000      0.000000
    123 Au    c      -0.000000     -0.000000     -0.000000      0.000000
    124 Au    c      -0.000000     -0.000000      0.000000      0.000000
    125 Au    c      -0.000006     -0.000005      0.000000      0.000000
    126 Au    c      -0.000003     -0.000002      0.000000      0.000000
    127 Au    c      -0.000001     -0.000000      0.000000      0.000000
    128 Au    c      -0.000003     -0.000002     -0.000000      0.000000
    129 Au    c       0.000000      0.000000      0.000076      0.000000
    130 Au    c       0.000000      0.000000     -0.000000      0.000000
    131 Au    c       0.000000      0.000000     -0.000076      0.000000
    132 Au    c       0.000000      0.000076      0.000000      0.000000
    133 Au    c      -0.000000     -0.000033     -0.000033      0.000000
    134 Au    c      -0.000000     -0.000000      0.000000      0.000000
    135 Au    c      -0.000000     -0.000033      0.000033      0.000000
    136 Au    c       0.000000      0.000000      0.000000      0.000000
    137 Au    c      -0.000000     -0.000000     -0.000000      0.000000
    138 Au    c       0.000000      0.000000     -0.000000      0.000000
    139 Au    c      -0.000000     -0.000000      0.000000      0.000000
    140 Au    c       0.000000     -0.000076      0.000000      0.000000
    141 Au    c      -0.000000      0.000033     -0.000033      0.000000
    142 Au    c      -0.000000      0.000000      0.000000      0.000000
    143 Au    c      -0.000000      0.000033      0.000033      0.000000
    144 Au    c       0.000076      0.000000      0.000000      0.000000
    145 Au    c      -0.000033      0.000000     -0.000033      0.000000
    146 Au    c      -0.000000     -0.000000      0.000000      0.000000
    147 Au    c      -0.000033     -0.000000      0.000033      0.000000
    148 Au    c      -0.000033     -0.000033     -0.000000      0.000000
    149 Au    c       0.000001      0.000001      0.000001      0.000000
    150 Au    c       0.000001      0.000001      0.000000      0.000000
    151 Au    c       0.000001      0.000001     -0.000001      0.000000
    152 Au    c      -0.000000     -0.000000     -0.000000      0.000000
    153 Au    c       0.000001     -0.000000      0.000001      0.000000
    154 Au    c       0.000000     -0.000000     -0.000000      0.000000
    155 Au    c       0.000001     -0.000000     -0.000001      0.000000
    156 Au    c      -0.000033      0.000033     -0.000000      0.000000
    157 Au    c       0.000001     -0.000001      0.000001      0.000000
    158 Au    c       0.000001     -0.000001      0.000000      0.000000
    159 Au    c       0.000001     -0.000001     -0.000001      0.000000
    160 Au    c      -0.000000      0.000000      0.000000      0.000000
    161 Au    c       0.000000      0.000000     -0.000000      0.000000
    162 Au    c      -0.000000      0.000000     -0.000000      0.000000
    163 Au    c       0.000000      0.000000      0.000000      0.000000
    164 Au    c       0.000000     -0.000000     -0.000000      0.000000
    165 Au    c       0.000000      0.000001      0.000001      0.000000
    166 Au    c      -0.000000      0.000000     -0.000000      0.000000
    167 Au    c       0.000000      0.000001     -0.000001      0.000000
    168 Au    c      -0.000000     -0.000000     -0.000000      0.000000
    169 Au    c      -0.000000      0.000000      0.000000      0.000000
    170 Au    c      -0.000000      0.000000     -0.000000      0.000000
    171 Au    c      -0.000000      0.000000     -0.000000      0.000000
    172 Au    c       0.000000      0.000000     -0.000000      0.000000
    173 Au    c       0.000000     -0.000001      0.000001      0.000000
    174 Au    c      -0.000000     -0.000000     -0.000000      0.000000
    175 Au    c       0.000000     -0.000001     -0.000001      0.000000
    176 Au    c      -0.000076      0.000000      0.000000      0.000000
    177 Au    c       0.000033      0.000000     -0.000033      0.000000
    178 Au    c       0.000000     -0.000000      0.000000      0.000000
    179 Au    c       0.000033      0.000000      0.000033      0.000000
    180 Au    c       0.000033     -0.000033     -0.000000      0.000000
    181 Au    c      -0.000001      0.000001      0.000001      0.000000
    182 Au    c      -0.000001      0.000001      0.000000      0.000000
    183 Au    c      -0.000001      0.000001     -0.000001      0.000000
    184 Au    c       0.000000     -0.000000     -0.000000      0.000000
    185 Au    c      -0.000001     -0.000000      0.000001      0.000000
    186 Au    c      -0.000000     -0.000000     -0.000000      0.000000
    187 Au    c      -0.000001     -0.000000     -0.000001      0.000000
    188 Au    c       0.000033      0.000033     -0.000000      0.000000
    189 Au    c      -0.000001     -0.000001      0.000001      0.000000
    190 Au    c      -0.000001     -0.000001      0.000000      0.000000
    191 Au    c      -0.000001     -0.000001     -0.000001      0.000000
    192 Au    c      -0.000000     -0.000060      0.000060      0.000000
    193 Au    c      -0.000000     -0.000060     -0.000060      0.000000
    194 Au    c       0.000000      0.000005      0.000006      0.000000
    195 Au    c       0.000000      0.000005     -0.000006      0.000000
    196 Au    c       0.000000      0.000006     -0.000005      0.000000
    197 Au    c       0.000000      0.000006      0.000005      0.000000
    198 Au    c       0.000000      0.000013      0.000013      0.000000
    199 Au    c       0.000000      0.000013     -0.000013      0.000000
    200 Au    c       0.000000     -0.000006     -0.000005      0.000000
    201 Au    c       0.000000     -0.000006      0.000005      0.000000
    202 Au    c       0.000000     -0.000013      0.000013      0.000000
    203 Au    c       0.000000     -0.000013     -0.000013      0.000000
    204 Au    c      -0.000000      0.000060      0.000060      0.000000
    205 Au    c      -0.000000      0.000060     -0.000060      0.000000
    206 Au    c       0.000000     -0.000005      0.000006      0.000000
    207 Au    c       0.000000     -0.000005     -0.000006      0.000000
    208 Au    c       0.000011      0.000006     -0.000006      0.000000
    209 Au    c       0.000011      0.000006      0.000006      0.000000
    210 Au    c       0.000000      0.000002      0.000003      0.000000
    211 Au    c       0.000000      0.000002     -0.000003      0.000000
    212 Au    c       0.000000      0.000003     -0.000002      0.000000
    213 Au    c       0.000000      0.000003      0.000002      0.000000
    214 Au    c      -0.000000      0.000000      0.000000      0.000000
    215 Au    c      -0.000000      0.000000     -0.000000      0.000000
    216 Au    c       0.000000     -0.000003     -0.000002      0.000000
    217 Au    c       0.000000     -0.000003      0.000002      0.000000
    218 Au    c      -0.000000     -0.000000      0.000000      0.000000
    219 Au    c      -0.000000     -0.000000     -0.000000      0.000000
    220 Au    c       0.000011     -0.000006     -0.000006      0.000000
    221 Au    c       0.000011     -0.000006      0.000006      0.000000
    222 Au    c       0.000000     -0.000002      0.000003      0.000000
    223 Au    c       0.000000     -0.000002     -0.000003      0.000000
    224 Au    c       0.000000     -0.000000      0.000000      0.000000
    225 Au    c       0.000000     -0.000000     -0.000000      0.000000
    226 Au    c       0.000000      0.000000      0.000001      0.000000
    227 Au    c       0.000000      0.000000     -0.000001      0.000000
    228 Au    c       0.000000      0.000001     -0.000000      0.000000
    229 Au    c       0.000000      0.000001      0.000000      0.000000
    230 Au    c      -0.000000      0.000000      0.000000      0.000000
    231 Au    c      -0.000000      0.000000     -0.000000      0.000000
    232 Au    c       0.000000     -0.000001     -0.000000      0.000000
    233 Au    c       0.000000     -0.000001      0.000000      0.000000
    234 Au    c      -0.000000     -0.000000      0.000000      0.000000
    235 Au    c      -0.000000     -0.000000     -0.000000      0.000000
    236 Au    c       0.000000      0.000000      0.000000      0.000000
    237 Au    c       0.000000      0.000000     -0.000000      0.000000
    238 Au    c       0.000000     -0.000000      0.000001      0.000000
    239 Au    c       0.000000     -0.000000     -0.000001      0.000000
    240 Au    c      -0.000011      0.000006     -0.000006      0.000000
    241 Au    c      -0.000011      0.000006      0.000006      0.000000
    242 Au    c      -0.000000      0.000002      0.000003      0.000000
    243 Au    c      -0.000000      0.000002     -0.000003      0.000000
    244 Au    c      -0.000000      0.000003     -0.000002      0.000000
    245 Au    c      -0.000000      0.000003      0.000002      0.000000
    246 Au    c       0.000000      0.000000      0.000000      0.000000
    247 Au    c       0.000000      0.000000     -0.000000      0.000000
    248 Au    c      -0.000000     -0.000003     -0.000002      0.000000
    249 Au    c      -0.000000     -0.000003      0.000002      0.000000
    250 Au    c       0.000000     -0.000000      0.000000      0.000000
    251 Au    c       0.000000     -0.000000     -0.000000      0.000000
    252 Au    c      -0.000011     -0.000006     -0.000006      0.000000
    253 Au    c      -0.000011     -0.000006      0.000006      0.000000
    254 Au    c      -0.000000     -0.000002      0.000003      0.000000
    255 Au    c      -0.000000     -0.000002     -0.000003      0.000000
--------------------------------------------------------------------------------
  Maximum abs         0.000076      0.000076      0.000076      0.000000
--------------------------------------------------------------------------------

  Comparison of initial and final structures : 

--------------------------------------------------------------------------------
  Parameter   Initial value   Final value   Difference    Units      Percent
--------------------------------------------------------------------------------
    Volume      4337.126690   4338.976022     1.849332    Angs**3      0.04
    a             16.308000     16.310318     0.002318    Angstroms    0.01
    b             16.308000     16.310318     0.002318    Angstroms    0.01
    c             16.308000     16.310318     0.002318    Angstroms    0.01
    alpha         90.000000     90.000000     0.000000    Degrees      0.00
    beta          90.000000     90.000000     0.000000    Degrees      0.00
    gamma         90.000000     90.000000     0.000000    Degrees      0.00
      1 x          0.000000      0.000000     0.000000    Fractional   0.00
      1 y          0.000000      0.000000     0.000000    Fractional   0.00
      1 z          0.000000      0.000000     0.000000    Fractional   0.00
      2 x          0.000000      0.000000     0.000000    Fractional   0.00
      2 y          0.000000      0.000000     0.000000    Fractional   0.00
      2 z          0.250000      0.248249     0.001751    Fractional   0.70
      3 x          0.000000      0.999069     0.999069    Fractional   0.00
      3 y          0.000000      0.000000     0.000000    Fractional   0.00
      3 z          0.500000      0.499234     0.000766    Fractional   0.15
      4 x          0.000000      0.999069     0.999069    Fractional   0.00
      4 y          0.000000      0.000000     0.000000    Fractional   0.00
      4 z          0.750000      0.749015     0.000985    Fractional   0.13
      5 x          0.000000      0.999240     0.999240    Fractional   0.00
      5 y          0.250000      0.249870     0.000130    Fractional   0.05
      5 z          0.000000      0.999240     0.999240    Fractional   0.00
      6 x          0.000000      0.999240     0.999240    Fractional   0.00
      6 y          0.250000      0.249870     0.000130    Fractional   0.05
      6 z          0.250000      0.249008     0.000992    Fractional   0.40
      7 x          0.000000      0.999146     0.999146    Fractional   0.00
      7 y          0.250000      0.249965     0.000035    Fractional   0.01
      7 z          0.500000      0.499063     0.000937    Fractional   0.19
      8 x          0.000000      0.999146     0.999146    Fractional   0.00
      8 y          0.250000      0.249965     0.000035    Fractional   0.01
      8 z          0.750000      0.749186     0.000814    Fractional   0.11
      9 x          0.000000      0.999091     0.999091    Fractional   0.00
      9 y          0.500000      0.500000     0.000000    Fractional   0.00
      9 z          0.000000      0.999091     0.999091    Fractional   0.00
     10 x          0.000000      0.999091     0.999091    Fractional   0.00
     10 y          0.500000      0.500000     0.000000    Fractional   0.00
     10 z          0.250000      0.249158     0.000842    Fractional   0.34
     11 x          0.000000      0.999138     0.999138    Fractional   0.00
     11 y          0.500000      0.500000     0.000000    Fractional   0.00
     11 z          0.500000      0.499107     0.000893    Fractional   0.18
     12 x          0.000000      0.999138     0.999138    Fractional   0.00
     12 y          0.500000      0.500000     0.000000    Fractional   0.00
     12 z          0.750000      0.749142     0.000858    Fractional   0.11
     13 x          0.000000      0.999240     0.999240    Fractional   0.00
     13 y          0.750000      0.750130     0.000130    Fractional   0.02
     13 z          0.000000      0.999240     0.999240    Fractional   0.00
     14 x          0.000000      0.999240     0.999240    Fractional   0.00
     14 y          0.750000      0.750130     0.000130    Fractional   0.02
     14 z          0.250000      0.249008     0.000992    Fractional   0.40
     15 x          0.000000      0.999146     0.999146    Fractional   0.00
     15 y          0.750000      0.750035     0.000035    Fractional   0.00
     15 z          0.500000      0.499063     0.000937    Fractional   0.19
     16 x          0.000000      0.999146     0.999146    Fractional   0.00
     16 y          0.750000      0.750035     0.000035    Fractional   0.00
     16 z          0.750000      0.749186     0.000814    Fractional   0.11
     17 x          0.250000      0.248249     0.001751    Fractional   0.70
     17 y          0.000000      0.000000     0.000000    Fractional   0.00
     17 z          0.000000      1.000000     1.000000    Fractional   0.00
     18 x          0.250000      0.248249     0.001751    Fractional   0.70
     18 y          0.000000      0.000000     0.000000    Fractional   0.00
     18 z          0.250000      0.248249     0.001751    Fractional   0.70
     19 x          0.250000      0.249180     0.000820    Fractional   0.33
     19 y          0.000000      0.000000     0.000000    Fractional   0.00
     19 z          0.500000      0.499234     0.000766    Fractional   0.15
     20 x          0.250000      0.249180     0.000820    Fractional   0.33
     20 y          0.000000      0.000000     0.000000    Fractional   0.00
     20 z          0.750000      0.749015     0.000985    Fractional   0.13
     21 x          0.250000      0.249008     0.000992    Fractional   0.40
     21 y          0.250000      0.249870     0.000130    Fractional   0.05
     21 z          0.000000      0.999240     0.999240    Fractional   0.00
     22 x          0.250000      0.249008     0.000992    Fractional   0.40
     22 y          0.250000      0.249870     0.000130    Fractional   0.05
     22 z          0.250000      0.249008     0.000992    Fractional   0.40
     23 x          0.250000      0.249103     0.000897    Fractional   0.36
     23 y          0.250000      0.249965     0.000035    Fractional   0.01
     23 z          0.500000      0.499063     0.000937    Fractional   0.19
     24 x          0.250000      0.249103     0.000897    Fractional   0.36
     24 y          0.250000      0.249965     0.000035    Fractional   0.01
     24 z          0.750000      0.749186     0.000814    Fractional   0.11
     25 x          0.250000      0.249158     0.000842    Fractional   0.34
     25 y          0.500000      0.500000     0.000000    Fractional   0.00
     25 z          0.000000      0.999091     0.999091    Fractional   0.00
     26 x          0.250000      0.249158     0.000842    Fractional   0.34
     26 y          0.500000      0.500000     0.000000    Fractional   0.00
     26 z          0.250000      0.249158     0.000842    Fractional   0.34
     27 x          0.250000      0.249111     0.000889    Fractional   0.36
     27 y          0.500000      0.500000     0.000000    Fractional   0.00
     27 z          0.500000      0.499107     0.000893    Fractional   0.18
     28 x          0.250000      0.249111     0.000889    Fractional   0.36
     28 y          0.500000      0.500000     0.000000    Fractional   0.00
     28 z          0.750000      0.749142     0.000858    Fractional   0.11
     29 x          0.250000      0.249008     0.000992    Fractional   0.40
     29 y          0.750000      0.750130     0.000130    Fractional   0.02
     29 z          0.000000      0.999240     0.999240    Fractional   0.00
     30 x          0.250000      0.249008     0.000992    Fractional   0.40
     30 y          0.750000      0.750130     0.000130    Fractional   0.02
     30 z          0.250000      0.249008     0.000992    Fractional   0.40
     31 x          0.250000      0.249103     0.000897    Fractional   0.36
     31 y          0.750000      0.750035     0.000035    Fractional   0.00
     31 z          0.500000      0.499063     0.000937    Fractional   0.19
     32 x          0.250000      0.249103     0.000897    Fractional   0.36
     32 y          0.750000      0.750035     0.000035    Fractional   0.00
     32 z          0.750000      0.749186     0.000814    Fractional   0.11
     33 x          0.500000      0.499234     0.000766    Fractional   0.15
     33 y          0.000000      0.000000     0.000000    Fractional   0.00
     33 z          0.000000      0.999069     0.999069    Fractional   0.00
     34 x          0.500000      0.499234     0.000766    Fractional   0.15
     34 y          0.000000      0.000000     0.000000    Fractional   0.00
     34 z          0.250000      0.249180     0.000820    Fractional   0.33
     35 x          0.500000      0.499055     0.000945    Fractional   0.19
     35 y          0.000000      0.000000     0.000000    Fractional   0.00
     35 z          0.500000      0.499055     0.000945    Fractional   0.19
     36 x          0.500000      0.499055     0.000945    Fractional   0.19
     36 y          0.000000      0.000000     0.000000    Fractional   0.00
     36 z          0.750000      0.749194     0.000806    Fractional   0.11
     37 x          0.500000      0.499063     0.000937    Fractional   0.19
     37 y          0.250000      0.249965     0.000035    Fractional   0.01
     37 z          0.000000      0.999146     0.999146    Fractional   0.00
     38 x          0.500000      0.499063     0.000937    Fractional   0.19
     38 y          0.250000      0.249965     0.000035    Fractional   0.01
     38 z          0.250000      0.249103     0.000897    Fractional   0.36
     39 x          0.500000      0.499102     0.000898    Fractional   0.18
     39 y          0.250000      0.249979     0.000021    Fractional   0.01
     39 z          0.500000      0.499102     0.000898    Fractional   0.18
     40 x          0.500000      0.499102     0.000898    Fractional   0.18
     40 y          0.250000      0.249979     0.000021    Fractional   0.01
     40 z          0.750000      0.749147     0.000853    Fractional   0.11
     41 x          0.500000      0.499107     0.000893    Fractional   0.18
     41 y          0.500000      0.500000     0.000000    Fractional   0.00
     41 z          0.000000      0.999138     0.999138    Fractional   0.00
     42 x          0.500000      0.499107     0.000893    Fractional   0.18
     42 y          0.500000      0.500000     0.000000    Fractional   0.00
     42 z          0.250000      0.249111     0.000889    Fractional   0.36
     43 x          0.500000      0.499113     0.000887    Fractional   0.18
     43 y          0.500000      0.500000     0.000000    Fractional   0.00
     43 z          0.500000      0.499113     0.000887    Fractional   0.18
     44 x          0.500000      0.499113     0.000887    Fractional   0.18
     44 y          0.500000      0.500000     0.000000    Fractional   0.00
     44 z          0.750000      0.749136     0.000864    Fractional   0.12
     45 x          0.500000      0.499063     0.000937    Fractional   0.19
     45 y          0.750000      0.750035     0.000035    Fractional   0.00
     45 z          0.000000      0.999146     0.999146    Fractional   0.00
     46 x          0.500000      0.499063     0.000937    Fractional   0.19
     46 y          0.750000      0.750035     0.000035    Fractional   0.00
     46 z          0.250000      0.249103     0.000897    Fractional   0.36
     47 x          0.500000      0.499102     0.000898    Fractional   0.18
     47 y          0.750000      0.750021     0.000021    Fractional   0.00
     47 z          0.500000      0.499102     0.000898    Fractional   0.18
     48 x          0.500000      0.499102     0.000898    Fractional   0.18
     48 y          0.750000      0.750021     0.000021    Fractional   0.00
     48 z          0.750000      0.749147     0.000853    Fractional   0.11
     49 x          0.750000      0.749015     0.000985    Fractional   0.13
     49 y          0.000000      0.000000     0.000000    Fractional   0.00
     49 z          0.000000      0.999069     0.999069    Fractional   0.00
     50 x          0.750000      0.749015     0.000985    Fractional   0.13
     50 y          0.000000      0.000000     0.000000    Fractional   0.00
     50 z          0.250000      0.249180     0.000820    Fractional   0.33
     51 x          0.750000      0.749194     0.000806    Fractional   0.11
     51 y          0.000000      0.000000     0.000000    Fractional   0.00
     51 z          0.500000      0.499055     0.000945    Fractional   0.19
     52 x          0.750000      0.749194     0.000806    Fractional   0.11
     52 y          0.000000      0.000000     0.000000    Fractional   0.00
     52 z          0.750000      0.749194     0.000806    Fractional   0.11
     53 x          0.750000      0.749186     0.000814    Fractional   0.11
     53 y          0.250000      0.249965     0.000035    Fractional   0.01
     53 z          0.000000      0.999146     0.999146    Fractional   0.00
     54 x          0.750000      0.749186     0.000814    Fractional   0.11
     54 y          0.250000      0.249965     0.000035    Fractional   0.01
     54 z          0.250000      0.249103     0.000897    Fractional   0.36
     55 x          0.750000      0.749147     0.000853    Fractional   0.11
     55 y          0.250000      0.249979     0.000021    Fractional   0.01
     55 z          0.500000      0.499102     0.000898    Fractional   0.18
     56 x          0.750000      0.749147     0.000853    Fractional   0.11
     56 y          0.250000      0.249979     0.000021    Fractional   0.01
     56 z          0.750000      0.749147     0.000853    Fractional   0.11
     57 x          0.750000      0.749142     0.000858    Fractional   0.11
     57 y          0.500000      0.500000     0.000000    Fractional   0.00
     57 z          0.000000      0.999138     0.999138    Fractional   0.00
     58 x          0.750000      0.749142     0.000858    Fractional   0.11
     58 y          0.500000      0.500000     0.000000    Fractional   0.00
     58 z          0.250000      0.249111     0.000889    Fractional   0.36
     59 x          0.750000      0.749136     0.000864    Fractional   0.12
     59 y          0.500000      0.500000     0.000000    Fractional   0.00
     59 z          0.500000      0.499113     0.000887    Fractional   0.18
     60 x          0.750000      0.749136     0.000864    Fractional   0.12
     60 y          0.500000      0.500000     0.000000    Fractional   0.00
     60 z          0.750000      0.749136     0.000864    Fractional   0.12
     61 x          0.750000      0.749186     0.000814    Fractional   0.11
     61 y          0.750000      0.750035     0.000035    Fractional   0.00
     61 z          0.000000      0.999146     0.999146    Fractional   0.00
     62 x          0.750000      0.749186     0.000814    Fractional   0.11
[...]
    174 z          0.625000      0.624124     0.000876    Fractional   0.14
    175 x          0.625000      0.624124     0.000876    Fractional   0.14
    175 y          0.750000      0.750015     0.000015    Fractional   0.00
    175 z          0.875000      0.874140     0.000860    Fractional   0.10
    176 x          0.875000      0.873607     0.001393    Fractional   0.16
    176 y          0.000000      0.000000     0.000000    Fractional   0.00
    176 z          0.125000      0.124124     0.000876    Fractional   0.70
    177 x          0.875000      0.874362     0.000638    Fractional   0.07
    177 y          0.000000      0.000000     0.000000    Fractional   0.00
    177 z          0.375000      0.373887     0.001113    Fractional   0.30
    178 x          0.875000      0.874086     0.000914    Fractional   0.10
    178 y          0.000000      0.000000     0.000000    Fractional   0.00
    178 z          0.625000      0.624124     0.000876    Fractional   0.14
    179 x          0.875000      0.874362     0.000638    Fractional   0.07
    179 y          0.000000      0.000000     0.000000    Fractional   0.00
    179 z          0.875000      0.874362     0.000638    Fractional   0.07
    180 x          0.875000      0.874362     0.000638    Fractional   0.07
    180 y          0.250000      0.249762     0.000238    Fractional   0.10
    180 z          0.125000      0.124124     0.000876    Fractional   0.70
    181 x          0.875000      0.874189     0.000811    Fractional   0.09
    181 y          0.250000      0.249935     0.000065    Fractional   0.03
    181 z          0.375000      0.374060     0.000940    Fractional   0.25
    182 x          0.875000      0.874140     0.000860    Fractional   0.10
    182 y          0.250000      0.249985     0.000015    Fractional   0.01
    182 z          0.625000      0.624124     0.000876    Fractional   0.14
    183 x          0.875000      0.874189     0.000811    Fractional   0.09
    183 y          0.250000      0.249935     0.000065    Fractional   0.03
    183 z          0.875000      0.874189     0.000811    Fractional   0.09
    184 x          0.875000      0.874086     0.000914    Fractional   0.10
    184 y          0.500000      0.500000     0.000000    Fractional   0.00
    184 z          0.125000      0.124124     0.000876    Fractional   0.70
    185 x          0.875000      0.874140     0.000860    Fractional   0.10
    185 y          0.500000      0.500000     0.000000    Fractional   0.00
    185 z          0.375000      0.374109     0.000891    Fractional   0.24
    186 x          0.875000      0.874140     0.000860    Fractional   0.10
    186 y          0.500000      0.500000     0.000000    Fractional   0.00
    186 z          0.625000      0.624124     0.000876    Fractional   0.14
    187 x          0.875000      0.874140     0.000860    Fractional   0.10
    187 y          0.500000      0.500000     0.000000    Fractional   0.00
    187 z          0.875000      0.874140     0.000860    Fractional   0.10
    188 x          0.875000      0.874362     0.000638    Fractional   0.07
    188 y          0.750000      0.750238     0.000238    Fractional   0.03
    188 z          0.125000      0.124124     0.000876    Fractional   0.70
    189 x          0.875000      0.874189     0.000811    Fractional   0.09
    189 y          0.750000      0.750065     0.000065    Fractional   0.01
    189 z          0.375000      0.374060     0.000940    Fractional   0.25
    190 x          0.875000      0.874140     0.000860    Fractional   0.10
    190 y          0.750000      0.750015     0.000015    Fractional   0.00
    190 z          0.625000      0.624124     0.000876    Fractional   0.14
    191 x          0.875000      0.874189     0.000811    Fractional   0.09
    191 y          0.750000      0.750065     0.000065    Fractional   0.01
    191 z          0.875000      0.874189     0.000811    Fractional   0.09
    192 x          0.125000      0.124124     0.000876    Fractional   0.70
    192 y          0.125000      0.124124     0.000876    Fractional   0.70
    192 z          0.000000      0.000000     0.000000    Fractional   0.00
    193 x          0.125000      0.124124     0.000876    Fractional   0.70
    193 y          0.125000      0.124124     0.000876    Fractional   0.70
    193 z          0.250000      0.248249     0.001751    Fractional   0.70
    194 x          0.125000      0.124124     0.000876    Fractional   0.70
    194 y          0.125000      0.125056     0.000056    Fractional   0.04
    194 z          0.500000      0.499234     0.000766    Fractional   0.15
    195 x          0.125000      0.124124     0.000876    Fractional   0.70
    195 y          0.125000      0.125056     0.000056    Fractional   0.04
    195 z          0.750000      0.749015     0.000985    Fractional   0.13
    196 x          0.125000      0.124124     0.000876    Fractional   0.70
    196 y          0.375000      0.375109     0.000109    Fractional   0.03
    196 z          0.000000      0.999069     0.999069    Fractional   0.00
    197 x          0.125000      0.124124     0.000876    Fractional   0.70
    197 y          0.375000      0.375109     0.000109    Fractional   0.03
    197 z          0.250000      0.249180     0.000820    Fractional   0.33
    198 x          0.125000      0.124124     0.000876    Fractional   0.70
    198 y          0.375000      0.374931     0.000069    Fractional   0.02
    198 z          0.500000      0.499055     0.000945    Fractional   0.19
    199 x          0.125000      0.124124     0.000876    Fractional   0.70
    199 y          0.375000      0.374931     0.000069    Fractional   0.02
    199 z          0.750000      0.749194     0.000806    Fractional   0.11
    200 x          0.125000      0.124124     0.000876    Fractional   0.70
    200 y          0.625000      0.624891     0.000109    Fractional   0.02
    200 z          0.000000      0.999069     0.999069    Fractional   0.00
    201 x          0.125000      0.124124     0.000876    Fractional   0.70
    201 y          0.625000      0.624891     0.000109    Fractional   0.02
    201 z          0.250000      0.249180     0.000820    Fractional   0.33
    202 x          0.125000      0.124124     0.000876    Fractional   0.70
    202 y          0.625000      0.625069     0.000069    Fractional   0.01
    202 z          0.500000      0.499055     0.000945    Fractional   0.19
    203 x          0.125000      0.124124     0.000876    Fractional   0.70
    203 y          0.625000      0.625069     0.000069    Fractional   0.01
    203 z          0.750000      0.749194     0.000806    Fractional   0.11
    204 x          0.125000      0.124124     0.000876    Fractional   0.70
    204 y          0.875000      0.875876     0.000876    Fractional   0.10
    204 z          0.000000      0.000000     0.000000    Fractional   0.00
    205 x          0.125000      0.124124     0.000876    Fractional   0.70
    205 y          0.875000      0.875876     0.000876    Fractional   0.10
    205 z          0.250000      0.248249     0.001751    Fractional   0.70
    206 x          0.125000      0.124124     0.000876    Fractional   0.70
    206 y          0.875000      0.874944     0.000056    Fractional   0.01
    206 z          0.500000      0.499234     0.000766    Fractional   0.15
    207 x          0.125000      0.124124     0.000876    Fractional   0.70
    207 y          0.875000      0.874944     0.000056    Fractional   0.01
    207 z          0.750000      0.749015     0.000985    Fractional   0.13
    208 x          0.375000      0.373994     0.001006    Fractional   0.27
    208 y          0.125000      0.124884     0.000116    Fractional   0.09
    208 z          0.000000      0.999240     0.999240    Fractional   0.00
    209 x          0.375000      0.373994     0.001006    Fractional   0.27
    209 y          0.125000      0.124884     0.000116    Fractional   0.09
    209 z          0.250000      0.249008     0.000992    Fractional   0.40
    210 x          0.375000      0.374090     0.000910    Fractional   0.24
    210 y          0.125000      0.124978     0.000022    Fractional   0.02
    210 z          0.500000      0.499063     0.000937    Fractional   0.19
    211 x          0.375000      0.374090     0.000910    Fractional   0.24
    211 y          0.125000      0.124978     0.000022    Fractional   0.02
    211 z          0.750000      0.749186     0.000814    Fractional   0.11
    212 x          0.375000      0.374090     0.000910    Fractional   0.24
    212 y          0.375000      0.374938     0.000062    Fractional   0.02
    212 z          0.000000      0.999146     0.999146    Fractional   0.00
    213 x          0.375000      0.374090     0.000910    Fractional   0.24
    213 y          0.375000      0.374938     0.000062    Fractional   0.02
    213 z          0.250000      0.249103     0.000897    Fractional   0.36
    214 x          0.375000      0.374104     0.000896    Fractional   0.24
    214 y          0.375000      0.374977     0.000023    Fractional   0.01
    214 z          0.500000      0.499102     0.000898    Fractional   0.18
    215 x          0.375000      0.374104     0.000896    Fractional   0.24
    215 y          0.375000      0.374977     0.000023    Fractional   0.01
    215 z          0.750000      0.749147     0.000853    Fractional   0.11
    216 x          0.375000      0.374090     0.000910    Fractional   0.24
    216 y          0.625000      0.625062     0.000062    Fractional   0.01
    216 z          0.000000      0.999146     0.999146    Fractional   0.00
    217 x          0.375000      0.374090     0.000910    Fractional   0.24
    217 y          0.625000      0.625062     0.000062    Fractional   0.01
    217 z          0.250000      0.249103     0.000897    Fractional   0.36
    218 x          0.375000      0.374104     0.000896    Fractional   0.24
    218 y          0.625000      0.625023     0.000023    Fractional   0.00
    218 z          0.500000      0.499102     0.000898    Fractional   0.18
    219 x          0.375000      0.374104     0.000896    Fractional   0.24
    219 y          0.625000      0.625023     0.000023    Fractional   0.00
    219 z          0.750000      0.749147     0.000853    Fractional   0.11
    220 x          0.375000      0.373994     0.001006    Fractional   0.27
    220 y          0.875000      0.875116     0.000116    Fractional   0.01
    220 z          0.000000      0.999240     0.999240    Fractional   0.00
    221 x          0.375000      0.373994     0.001006    Fractional   0.27
    221 y          0.875000      0.875116     0.000116    Fractional   0.01
    221 z          0.250000      0.249008     0.000992    Fractional   0.40
    222 x          0.375000      0.374090     0.000910    Fractional   0.24
    222 y          0.875000      0.875022     0.000022    Fractional   0.00
    222 z          0.500000      0.499063     0.000937    Fractional   0.19
    223 x          0.375000      0.374090     0.000910    Fractional   0.24
    223 y          0.875000      0.875022     0.000022    Fractional   0.00
    223 z          0.750000      0.749186     0.000814    Fractional   0.11
    224 x          0.625000      0.624124     0.000876    Fractional   0.14
    224 y          0.125000      0.125034     0.000034    Fractional   0.03
    224 z          0.000000      0.999091     0.999091    Fractional   0.00
    225 x          0.625000      0.624124     0.000876    Fractional   0.14
    225 y          0.125000      0.125034     0.000034    Fractional   0.03
    225 z          0.250000      0.249158     0.000842    Fractional   0.34
    226 x          0.625000      0.624124     0.000876    Fractional   0.14
    226 y          0.125000      0.124986     0.000014    Fractional   0.01
    226 z          0.500000      0.499107     0.000893    Fractional   0.18
    227 x          0.625000      0.624124     0.000876    Fractional   0.14
    227 y          0.125000      0.124986     0.000014    Fractional   0.01
    227 z          0.750000      0.749142     0.000858    Fractional   0.11
    228 x          0.625000      0.624124     0.000876    Fractional   0.14
    228 y          0.375000      0.374983     0.000017    Fractional   0.00
    228 z          0.000000      0.999138     0.999138    Fractional   0.00
    229 x          0.625000      0.624124     0.000876    Fractional   0.14
    229 y          0.375000      0.374983     0.000017    Fractional   0.00
    229 z          0.250000      0.249111     0.000889    Fractional   0.36
    230 x          0.625000      0.624124     0.000876    Fractional   0.14
    230 y          0.375000      0.374988     0.000012    Fractional   0.00
    230 z          0.500000      0.499113     0.000887    Fractional   0.18
    231 x          0.625000      0.624124     0.000876    Fractional   0.14
    231 y          0.375000      0.374988     0.000012    Fractional   0.00
    231 z          0.750000      0.749136     0.000864    Fractional   0.12
    232 x          0.625000      0.624124     0.000876    Fractional   0.14
    232 y          0.625000      0.625017     0.000017    Fractional   0.00
    232 z          0.000000      0.999138     0.999138    Fractional   0.00
    233 x          0.625000      0.624124     0.000876    Fractional   0.14
    233 y          0.625000      0.625017     0.000017    Fractional   0.00
    233 z          0.250000      0.249111     0.000889    Fractional   0.36
    234 x          0.625000      0.624124     0.000876    Fractional   0.14
    234 y          0.625000      0.625012     0.000012    Fractional   0.00
    234 z          0.500000      0.499113     0.000887    Fractional   0.18
    235 x          0.625000      0.624124     0.000876    Fractional   0.14
    235 y          0.625000      0.625012     0.000012    Fractional   0.00
    235 z          0.750000      0.749136     0.000864    Fractional   0.12
    236 x          0.625000      0.624124     0.000876    Fractional   0.14
    236 y          0.875000      0.874966     0.000034    Fractional   0.00
    236 z          0.000000      0.999091     0.999091    Fractional   0.00
    237 x          0.625000      0.624124     0.000876    Fractional   0.14
    237 y          0.875000      0.874966     0.000034    Fractional   0.00
    237 z          0.250000      0.249158     0.000842    Fractional   0.34
    238 x          0.625000      0.624124     0.000876    Fractional   0.14
    238 y          0.875000      0.875014     0.000014    Fractional   0.00
    238 z          0.500000      0.499107     0.000893    Fractional   0.18
    239 x          0.625000      0.624124     0.000876    Fractional   0.14
    239 y          0.875000      0.875014     0.000014    Fractional   0.00
    239 z          0.750000      0.749142     0.000858    Fractional   0.11
    240 x          0.875000      0.874255     0.000745    Fractional   0.09
    240 y          0.125000      0.124884     0.000116    Fractional   0.09
    240 z          0.000000      0.999240     0.999240    Fractional   0.00
    241 x          0.875000      0.874255     0.000745    Fractional   0.09
    241 y          0.125000      0.124884     0.000116    Fractional   0.09
    241 z          0.250000      0.249008     0.000992    Fractional   0.40
    242 x          0.875000      0.874159     0.000841    Fractional   0.10
    242 y          0.125000      0.124978     0.000022    Fractional   0.02
    242 z          0.500000      0.499063     0.000937    Fractional   0.19
    243 x          0.875000      0.874159     0.000841    Fractional   0.10
    243 y          0.125000      0.124978     0.000022    Fractional   0.02
    243 z          0.750000      0.749186     0.000814    Fractional   0.11
    244 x          0.875000      0.874159     0.000841    Fractional   0.10
    244 y          0.375000      0.374938     0.000062    Fractional   0.02
    244 z          0.000000      0.999146     0.999146    Fractional   0.00
    245 x          0.875000      0.874159     0.000841    Fractional   0.10
    245 y          0.375000      0.374938     0.000062    Fractional   0.02
    245 z          0.250000      0.249103     0.000897    Fractional   0.36
    246 x          0.875000      0.874145     0.000855    Fractional   0.10
    246 y          0.375000      0.374977     0.000023    Fractional   0.01
    246 z          0.500000      0.499102     0.000898    Fractional   0.18
    247 x          0.875000      0.874145     0.000855    Fractional   0.10
    247 y          0.375000      0.374977     0.000023    Fractional   0.01
    247 z          0.750000      0.749147     0.000853    Fractional   0.11
    248 x          0.875000      0.874159     0.000841    Fractional   0.10
    248 y          0.625000      0.625062     0.000062    Fractional   0.01
    248 z          0.000000      0.999146     0.999146    Fractional   0.00
    249 x          0.875000      0.874159     0.000841    Fractional   0.10
    249 y          0.625000      0.625062     0.000062    Fractional   0.01
    249 z          0.250000      0.249103     0.000897    Fractional   0.36
    250 x          0.875000      0.874145     0.000855    Fractional   0.10
    250 y          0.625000      0.625023     0.000023    Fractional   0.00
    250 z          0.500000      0.499102     0.000898    Fractional   0.18
    251 x          0.875000      0.874145     0.000855    Fractional   0.10
    251 y          0.625000      0.625023     0.000023    Fractional   0.00
    251 z          0.750000      0.749147     0.000853    Fractional   0.11
    252 x          0.875000      0.874255     0.000745    Fractional   0.09
    252 y          0.875000      0.875116     0.000116    Fractional   0.01
    252 z          0.000000      0.999240     0.999240    Fractional   0.00
    253 x          0.875000      0.874255     0.000745    Fractional   0.09
    253 y          0.875000      0.875116     0.000116    Fractional   0.01
    253 z          0.250000      0.249008     0.000992    Fractional   0.40
    254 x          0.875000      0.874159     0.000841    Fractional   0.10
    254 y          0.875000      0.875022     0.000022    Fractional   0.00
    254 z          0.500000      0.499063     0.000937    Fractional   0.19
    255 x          0.875000      0.874159     0.000841    Fractional   0.10
    255 y          0.875000      0.875022     0.000022    Fractional   0.00
    255 z          0.750000      0.749186     0.000814    Fractional   0.11
--------------------------------------------------------------------------------


  Distance calculation :


  Cutoff for distances  =      2.000000 Angstroms

--------------------------------------------------------------------------------
  Asymmetric unit site  Full lattice sites    No.  Distance      No.  Distance
      No.   At.No.            At.No.                (Angs)             (Angs) 
--------------------------------------------------------------------------------



  Time to end of optimisation =       2.1346 seconds


  Peak dynamic memory used =      13.20 MB 


  Timing analysis for GULP :

--------------------------------------------------------------------------------
  Task / Subroutine                                          Time (Seconds)
--------------------------------------------------------------------------------
  Calculation of real space energy and derivatives                1.9905
  Calculation and manipulation of Hessian matrix                  0.0009
  Calculation of matrix inversion                                 0.0981
--------------------------------------------------------------------------------
  Total CPU time                                                  2.1346
--------------------------------------------------------------------------------


  Job Finished at 17:28.33  6th January    2019                               

