********************************************************************************
*                       GENERAL UTILITY LATTICE PROGRAM                        *
*                                 Julian Gale                                  *
*                       Curtin Institute for Computation                       *
*                           Department of Chemistry                            *
*                    Curtin University, Western Australia                      *
********************************************************************************
* Version = 5.1.1 * Last modified =  24th November 2018                        *
********************************************************************************
*  optimise     - perform optimisation run                                     *
*  conp         - constant pressure calculation                                *
*  distance     - calculate distances                                          *
*  compare      - compare initial and final structures                         *
********************************************************************************

  Job Started  at 17:28.33  6th January    2019                               

  Number of CPUs =     1


  Total number of configurations input =      1

********************************************************************************
*  Input for Configuration =   1                                               *
********************************************************************************

  Formula = Au499                                                       

  Number of irreducible atoms/shells =     499


  Total number atoms/shells =     499

  Dimensionality = 3               :  Bulk   



  Cartesian lattice vectors (Angstroms) :

       20.385000    0.000000    0.000000
        0.000000   20.385000    0.000000
        0.000000    0.000000   20.385000

  Cell parameters (Angstroms/Degrees):

  a =      20.3850    alpha =  90.0000
  b =      20.3850    beta  =  90.0000
  c =      20.3850    gamma =  90.0000

  Initial cell volume =        8470.950567 Angs**3

  Temperature of configuration =  0.000     K 

  Pressure of configuration =         0.000 GPa 

  Fractional coordinates of asymmetric unit :

--------------------------------------------------------------------------------
   No.  Atomic       x           y          z         Charge      Occupancy
        Label      (Frac)      (Frac)     (Frac)        (e)         (Frac)  
--------------------------------------------------------------------------------
      1 Au    c    0.000000    0.000000    0.000000     0.00000    1.000000    
      2 Au    c    0.000000 *  0.000000 *  0.200000 *   0.00000    1.000000    
      3 Au    c    0.000000 *  0.000000 *  0.400000 *   0.00000    1.000000    
      4 Au    c    0.000000 *  0.000000 *  0.600000 *   0.00000    1.000000    
      5 Au    c    0.000000 *  0.000000 *  0.800000 *   0.00000    1.000000    
      6 Au    c    0.000000 *  0.200000 *  0.000000 *   0.00000    1.000000    
      7 Au    c    0.000000 *  0.200000 *  0.200000 *   0.00000    1.000000    
      8 Au    c    0.000000 *  0.200000 *  0.400000 *   0.00000    1.000000    
      9 Au    c    0.000000 *  0.200000 *  0.600000 *   0.00000    1.000000    
     10 Au    c    0.000000 *  0.200000 *  0.800000 *   0.00000    1.000000    
     11 Au    c    0.000000 *  0.400000 *  0.000000 *   0.00000    1.000000    
     12 Au    c    0.000000 *  0.400000 *  0.200000 *   0.00000    1.000000    
     13 Au    c    0.000000 *  0.400000 *  0.400000 *   0.00000    1.000000    
     14 Au    c    0.000000 *  0.400000 *  0.600000 *   0.00000    1.000000    
     15 Au    c    0.000000 *  0.400000 *  0.800000 *   0.00000    1.000000    
     16 Au    c    0.000000 *  0.600000 *  0.000000 *   0.00000    1.000000    
     17 Au    c    0.000000 *  0.600000 *  0.200000 *   0.00000    1.000000    
     18 Au    c    0.000000 *  0.600000 *  0.400000 *   0.00000    1.000000    
     19 Au    c    0.000000 *  0.600000 *  0.600000 *   0.00000    1.000000    
     20 Au    c    0.000000 *  0.600000 *  0.800000 *   0.00000    1.000000    
     21 Au    c    0.000000 *  0.800000 *  0.000000 *   0.00000    1.000000    
     22 Au    c    0.000000 *  0.800000 *  0.200000 *   0.00000    1.000000    
     23 Au    c    0.000000 *  0.800000 *  0.400000 *   0.00000    1.000000    
     24 Au    c    0.000000 *  0.800000 *  0.600000 *   0.00000    1.000000    
     25 Au    c    0.000000 *  0.800000 *  0.800000 *   0.00000    1.000000    
     26 Au    c    0.200000 *  0.000000 *  0.000000 *   0.00000    1.000000    
     27 Au    c    0.200000 *  0.000000 *  0.200000 *   0.00000    1.000000    
     28 Au    c    0.200000 *  0.000000 *  0.400000 *   0.00000    1.000000    
     29 Au    c    0.200000 *  0.000000 *  0.600000 *   0.00000    1.000000    
     30 Au    c    0.200000 *  0.000000 *  0.800000 *   0.00000    1.000000    
     31 Au    c    0.200000 *  0.200000 *  0.000000 *   0.00000    1.000000    
     32 Au    c    0.200000 *  0.200000 *  0.200000 *   0.00000    1.000000    
     33 Au    c    0.200000 *  0.200000 *  0.400000 *   0.00000    1.000000    
     34 Au    c    0.200000 *  0.200000 *  0.600000 *   0.00000    1.000000    
     35 Au    c    0.200000 *  0.200000 *  0.800000 *   0.00000    1.000000    
     36 Au    c    0.200000 *  0.400000 *  0.000000 *   0.00000    1.000000    
     37 Au    c    0.200000 *  0.400000 *  0.200000 *   0.00000    1.000000    
     38 Au    c    0.200000 *  0.400000 *  0.400000 *   0.00000    1.000000    
     39 Au    c    0.200000 *  0.400000 *  0.600000 *   0.00000    1.000000    
     40 Au    c    0.200000 *  0.400000 *  0.800000 *   0.00000    1.000000    
     41 Au    c    0.200000 *  0.600000 *  0.000000 *   0.00000    1.000000    
     42 Au    c    0.200000 *  0.600000 *  0.200000 *   0.00000    1.000000    
     43 Au    c    0.200000 *  0.600000 *  0.400000 *   0.00000    1.000000    
     44 Au    c    0.200000 *  0.600000 *  0.600000 *   0.00000    1.000000    
     45 Au    c    0.200000 *  0.600000 *  0.800000 *   0.00000    1.000000    
     46 Au    c    0.200000 *  0.800000 *  0.000000 *   0.00000    1.000000    
     47 Au    c    0.200000 *  0.800000 *  0.200000 *   0.00000    1.000000    
     48 Au    c    0.200000 *  0.800000 *  0.400000 *   0.00000    1.000000    
     49 Au    c    0.200000 *  0.800000 *  0.600000 *   0.00000    1.000000    
     50 Au    c    0.200000 *  0.800000 *  0.800000 *   0.00000    1.000000    
     51 Au    c    0.400000 *  0.000000 *  0.000000 *   0.00000    1.000000    
     52 Au    c    0.400000 *  0.000000 *  0.200000 *   0.00000    1.000000    
     53 Au    c    0.400000 *  0.000000 *  0.400000 *   0.00000    1.000000    
     54 Au    c    0.400000 *  0.000000 *  0.600000 *   0.00000    1.000000    
     55 Au    c    0.400000 *  0.000000 *  0.800000 *   0.00000    1.000000    
     56 Au    c    0.400000 *  0.200000 *  0.000000 *   0.00000    1.000000    
     57 Au    c    0.400000 *  0.200000 *  0.200000 *   0.00000    1.000000    
     58 Au    c    0.400000 *  0.200000 *  0.400000 *   0.00000    1.000000    
     59 Au    c    0.400000 *  0.200000 *  0.600000 *   0.00000    1.000000    
     60 Au    c    0.400000 *  0.200000 *  0.800000 *   0.00000    1.000000    
     61 Au    c    0.400000 *  0.400000 *  0.000000 *   0.00000    1.000000    
     62 Au    c    0.400000 *  0.400000 *  0.200000 *   0.00000    1.000000    
     63 Au    c    0.400000 *  0.400000 *  0.400000 *   0.00000    1.000000    
     64 Au    c    0.400000 *  0.400000 *  0.600000 *   0.00000    1.000000    
     65 Au    c    0.400000 *  0.400000 *  0.800000 *   0.00000    1.000000    
     66 Au    c    0.400000 *  0.600000 *  0.000000 *   0.00000    1.000000    
     67 Au    c    0.400000 *  0.600000 *  0.200000 *   0.00000    1.000000    
     68 Au    c    0.400000 *  0.600000 *  0.400000 *   0.00000    1.000000    
     69 Au    c    0.400000 *  0.600000 *  0.600000 *   0.00000    1.000000    
     70 Au    c    0.400000 *  0.600000 *  0.800000 *   0.00000    1.000000    
     71 Au    c    0.400000 *  0.800000 *  0.000000 *   0.00000    1.000000    
     72 Au    c    0.400000 *  0.800000 *  0.200000 *   0.00000    1.000000    
     73 Au    c    0.400000 *  0.800000 *  0.400000 *   0.00000    1.000000    
     74 Au    c    0.400000 *  0.800000 *  0.600000 *   0.00000    1.000000    
     75 Au    c    0.400000 *  0.800000 *  0.800000 *   0.00000    1.000000    
     76 Au    c    0.600000 *  0.000000 *  0.000000 *   0.00000    1.000000    
     77 Au    c    0.600000 *  0.000000 *  0.200000 *   0.00000    1.000000    
     78 Au    c    0.600000 *  0.000000 *  0.400000 *   0.00000    1.000000    
     79 Au    c    0.600000 *  0.000000 *  0.600000 *   0.00000    1.000000    
     80 Au    c    0.600000 *  0.000000 *  0.800000 *   0.00000    1.000000    
     81 Au    c    0.600000 *  0.200000 *  0.000000 *   0.00000    1.000000    
     82 Au    c    0.600000 *  0.200000 *  0.200000 *   0.00000    1.000000    
     83 Au    c    0.600000 *  0.200000 *  0.400000 *   0.00000    1.000000    
     84 Au    c    0.600000 *  0.200000 *  0.600000 *   0.00000    1.000000    
     85 Au    c    0.600000 *  0.200000 *  0.800000 *   0.00000    1.000000    
     86 Au    c    0.600000 *  0.400000 *  0.000000 *   0.00000    1.000000    
     87 Au    c    0.600000 *  0.400000 *  0.200000 *   0.00000    1.000000    
     88 Au    c    0.600000 *  0.400000 *  0.400000 *   0.00000    1.000000    
     89 Au    c    0.600000 *  0.400000 *  0.600000 *   0.00000    1.000000    
     90 Au    c    0.600000 *  0.400000 *  0.800000 *   0.00000    1.000000    
     91 Au    c    0.600000 *  0.600000 *  0.000000 *   0.00000    1.000000    
     92 Au    c    0.600000 *  0.600000 *  0.200000 *   0.00000    1.000000    
     93 Au    c    0.600000 *  0.600000 *  0.400000 *   0.00000    1.000000    
     94 Au    c    0.600000 *  0.600000 *  0.600000 *   0.00000    1.000000    
     95 Au    c    0.600000 *  0.600000 *  0.800000 *   0.00000    1.000000    
     96 Au    c    0.600000 *  0.800000 *  0.000000 *   0.00000    1.000000    
     97 Au    c    0.600000 *  0.800000 *  0.200000 *   0.00000    1.000000    
     98 Au    c    0.600000 *  0.800000 *  0.400000 *   0.00000    1.000000    
     99 Au    c    0.600000 *  0.800000 *  0.600000 *   0.00000    1.000000    
    100 Au    c    0.600000 *  0.800000 *  0.800000 *   0.00000    1.000000    
    101 Au    c    0.800000 *  0.000000 *  0.000000 *   0.00000    1.000000    
    102 Au    c    0.800000 *  0.000000 *  0.200000 *   0.00000    1.000000    
    103 Au    c    0.800000 *  0.000000 *  0.400000 *   0.00000    1.000000    
    104 Au    c    0.800000 *  0.000000 *  0.600000 *   0.00000    1.000000    
    105 Au    c    0.800000 *  0.000000 *  0.800000 *   0.00000    1.000000    
    106 Au    c    0.800000 *  0.200000 *  0.000000 *   0.00000    1.000000    
    107 Au    c    0.800000 *  0.200000 *  0.200000 *   0.00000    1.000000    
    108 Au    c    0.800000 *  0.200000 *  0.400000 *   0.00000    1.000000    
    109 Au    c    0.800000 *  0.200000 *  0.600000 *   0.00000    1.000000    
    110 Au    c    0.800000 *  0.200000 *  0.800000 *   0.00000    1.000000    
    111 Au    c    0.800000 *  0.400000 *  0.000000 *   0.00000    1.000000    
    112 Au    c    0.800000 *  0.400000 *  0.200000 *   0.00000    1.000000    
    113 Au    c    0.800000 *  0.400000 *  0.400000 *   0.00000    1.000000    
    114 Au    c    0.800000 *  0.400000 *  0.600000 *   0.00000    1.000000    
    115 Au    c    0.800000 *  0.400000 *  0.800000 *   0.00000    1.000000    
    116 Au    c    0.800000 *  0.600000 *  0.000000 *   0.00000    1.000000    
    117 Au    c    0.800000 *  0.600000 *  0.200000 *   0.00000    1.000000    
    118 Au    c    0.800000 *  0.600000 *  0.400000 *   0.00000    1.000000    
    119 Au    c    0.800000 *  0.600000 *  0.600000 *   0.00000    1.000000    
    120 Au    c    0.800000 *  0.600000 *  0.800000 *   0.00000    1.000000    
    121 Au    c    0.800000 *  0.800000 *  0.000000 *   0.00000    1.000000    
    122 Au    c    0.800000 *  0.800000 *  0.200000 *   0.00000    1.000000    
    123 Au    c    0.800000 *  0.800000 *  0.400000 *   0.00000    1.000000    
    124 Au    c    0.800000 *  0.800000 *  0.600000 *   0.00000    1.000000    
    125 Au    c    0.800000 *  0.800000 *  0.800000 *   0.00000    1.000000    
    126 Au    c    0.000000 *  0.100000 *  0.100000 *   0.00000    1.000000    
    127 Au    c    0.000000 *  0.100000 *  0.300000 *   0.00000    1.000000    
    128 Au    c    0.000000 *  0.100000 *  0.500000 *   0.00000    1.000000    
    129 Au    c    0.000000 *  0.100000 *  0.700000 *   0.00000    1.000000    
    130 Au    c    0.000000 *  0.100000 *  0.900000 *   0.00000    1.000000    
    131 Au    c    0.000000 *  0.300000 *  0.100000 *   0.00000    1.000000    
    132 Au    c    0.000000 *  0.300000 *  0.300000 *   0.00000    1.000000    
    133 Au    c    0.000000 *  0.300000 *  0.500000 *   0.00000    1.000000    
    134 Au    c    0.000000 *  0.300000 *  0.700000 *   0.00000    1.000000    
    135 Au    c    0.000000 *  0.300000 *  0.900000 *   0.00000    1.000000    
    136 Au    c    0.000000 *  0.500000 *  0.100000 *   0.00000    1.000000    
    137 Au    c    0.000000 *  0.500000 *  0.300000 *   0.00000    1.000000    
    138 Au    c    0.000000 *  0.500000 *  0.500000 *   0.00000    1.000000    
    139 Au    c    0.000000 *  0.500000 *  0.700000 *   0.00000    1.000000    
    140 Au    c    0.000000 *  0.500000 *  0.900000 *   0.00000    1.000000    
    141 Au    c    0.000000 *  0.700000 *  0.100000 *   0.00000    1.000000    
    142 Au    c    0.000000 *  0.700000 *  0.300000 *   0.00000    1.000000    
    143 Au    c    0.000000 *  0.700000 *  0.500000 *   0.00000    1.000000    
    144 Au    c    0.000000 *  0.700000 *  0.700000 *   0.00000    1.000000    
    145 Au    c    0.000000 *  0.700000 *  0.900000 *   0.00000    1.000000    
    146 Au    c    0.000000 *  0.900000 *  0.100000 *   0.00000    1.000000    
    147 Au    c    0.000000 *  0.900000 *  0.300000 *   0.00000    1.000000    
    148 Au    c    0.000000 *  0.900000 *  0.500000 *   0.00000    1.000000    
    149 Au    c    0.000000 *  0.900000 *  0.700000 *   0.00000    1.000000    
    150 Au    c    0.000000 *  0.900000 *  0.900000 *   0.00000    1.000000    
    151 Au    c    0.200000 *  0.100000 *  0.100000 *   0.00000    1.000000    
    152 Au    c    0.200000 *  0.100000 *  0.300000 *   0.00000    1.000000    
    153 Au    c    0.200000 *  0.100000 *  0.500000 *   0.00000    1.000000    
    154 Au    c    0.200000 *  0.100000 *  0.700000 *   0.00000    1.000000    
    155 Au    c    0.200000 *  0.100000 *  0.900000 *   0.00000    1.000000    
    156 Au    c    0.200000 *  0.300000 *  0.100000 *   0.00000    1.000000    
    157 Au    c    0.200000 *  0.300000 *  0.300000 *   0.00000    1.000000    
    158 Au    c    0.200000 *  0.300000 *  0.500000 *   0.00000    1.000000    
    159 Au    c    0.200000 *  0.300000 *  0.700000 *   0.00000    1.000000    
    160 Au    c    0.200000 *  0.300000 *  0.900000 *   0.00000    1.000000    
    161 Au    c    0.200000 *  0.500000 *  0.100000 *   0.00000    1.000000    
    162 Au    c    0.200000 *  0.500000 *  0.300000 *   0.00000    1.000000    
    163 Au    c    0.200000 *  0.500000 *  0.500000 *   0.00000    1.000000    
    164 Au    c    0.200000 *  0.500000 *  0.700000 *   0.00000    1.000000    
    165 Au    c    0.200000 *  0.500000 *  0.900000 *   0.00000    1.000000    
    166 Au    c    0.200000 *  0.700000 *  0.100000 *   0.00000    1.000000    
    167 Au    c    0.200000 *  0.700000 *  0.300000 *   0.00000    1.000000    
    168 Au    c    0.200000 *  0.700000 *  0.500000 *   0.00000    1.000000    
    169 Au    c    0.200000 *  0.700000 *  0.700000 *   0.00000    1.000000    
    170 Au    c    0.200000 *  0.700000 *  0.900000 *   0.00000    1.000000    
    171 Au    c    0.200000 *  0.900000 *  0.100000 *   0.00000    1.000000    
    172 Au    c    0.200000 *  0.900000 *  0.300000 *   0.00000    1.000000    
    173 Au    c    0.200000 *  0.900000 *  0.500000 *   0.00000    1.000000    
    174 Au    c    0.200000 *  0.900000 *  0.700000 *   0.00000    1.000000    
    175 Au    c    0.200000 *  0.900000 *  0.900000 *   0.00000    1.000000    
    176 Au    c    0.400000 *  0.100000 *  0.100000 *   0.00000    1.000000    
    177 Au    c    0.400000 *  0.100000 *  0.300000 *   0.00000    1.000000    
    178 Au    c    0.400000 *  0.100000 *  0.500000 *   0.00000    1.000000    
    179 Au    c    0.400000 *  0.100000 *  0.700000 *   0.00000    1.000000    
    180 Au    c    0.400000 *  0.100000 *  0.900000 *   0.00000    1.000000    
    181 Au    c    0.400000 *  0.300000 *  0.100000 *   0.00000    1.000000    
    182 Au    c    0.400000 *  0.300000 *  0.300000 *   0.00000    1.000000    
    183 Au    c    0.400000 *  0.300000 *  0.500000 *   0.00000    1.000000    
    184 Au    c    0.400000 *  0.300000 *  0.700000 *   0.00000    1.000000    
    185 Au    c    0.400000 *  0.300000 *  0.900000 *   0.00000    1.000000    
    186 Au    c    0.400000 *  0.500000 *  0.100000 *   0.00000    1.000000    
    187 Au    c    0.400000 *  0.500000 *  0.300000 *   0.00000    1.000000    
    188 Au    c    0.400000 *  0.500000 *  0.500000 *   0.00000    1.000000    
    189 Au    c    0.400000 *  0.500000 *  0.700000 *   0.00000    1.000000    
    190 Au    c    0.400000 *  0.500000 *  0.900000 *   0.00000    1.000000    
    191 Au    c    0.400000 *  0.700000 *  0.100000 *   0.00000    1.000000    
    192 Au    c    0.400000 *  0.700000 *  0.300000 *   0.00000    1.000000    
    193 Au    c    0.400000 *  0.700000 *  0.500000 *   0.00000    1.000000    
    194 Au    c    0.400000 *  0.700000 *  0.700000 *   0.00000    1.000000    
    195 Au    c    0.400000 *  0.700000 *  0.900000 *   0.00000    1.000000    
    196 Au    c    0.400000 *  0.900000 *  0.100000 *   0.00000    1.000000    
    197 Au    c    0.400000 *  0.900000 *  0.300000 *   0.00000    1.000000    
    198 Au    c    0.400000 *  0.900000 *  0.500000 *   0.00000    1.000000    
    199 Au    c    0.400000 *  0.900000 *  0.700000 *   0.00000    1.000000    
    200 Au    c    0.400000 *  0.900000 *  0.900000 *   0.00000    1.000000    
    201 Au    c    0.600000 *  0.100000 *  0.100000 *   0.00000    1.000000    
    202 Au    c    0.600000 *  0.100000 *  0.300000 *   0.00000    1.000000    
    203 Au    c    0.600000 *  0.100000 *  0.500000 *   0.00000    1.000000    
    204 Au    c    0.600000 *  0.100000 *  0.700000 *   0.00000    1.000000    
    205 Au    c    0.600000 *  0.100000 *  0.900000 *   0.00000    1.000000    
    206 Au    c    0.600000 *  0.300000 *  0.100000 *   0.00000    1.000000    
    207 Au    c    0.600000 *  0.300000 *  0.300000 *   0.00000    1.000000    
    208 Au    c    0.600000 *  0.300000 *  0.500000 *   0.00000    1.000000    
    209 Au    c    0.600000 *  0.300000 *  0.700000 *   0.00000    1.000000    
    210 Au    c    0.600000 *  0.300000 *  0.900000 *   0.00000    1.000000    
    211 Au    c    0.600000 *  0.500000 *  0.100000 *   0.00000    1.000000    
    212 Au    c    0.600000 *  0.500000 *  0.300000 *   0.00000    1.000000    
    213 Au    c    0.600000 *  0.500000 *  0.500000 *   0.00000    1.000000    
    214 Au    c    0.600000 *  0.500000 *  0.700000 *   0.00000    1.000000    
    215 Au    c    0.600000 *  0.500000 *  0.900000 *   0.00000    1.000000    
    216 Au    c    0.600000 *  0.700000 *  0.100000 *   0.00000    1.000000    
    217 Au    c    0.600000 *  0.700000 *  0.300000 *   0.00000    1.000000    
    218 Au    c    0.600000 *  0.700000 *  0.500000 *   0.00000    1.000000    
    219 Au    c    0.600000 *  0.700000 *  0.700000 *   0.00000    1.000000    
    220 Au    c    0.600000 *  0.700000 *  0.900000 *   0.00000    1.000000    
    221 Au    c    0.600000 *  0.900000 *  0.100000 *   0.00000    1.000000    
    222 Au    c    0.600000 *  0.900000 *  0.300000 *   0.00000    1.000000    
    223 Au    c    0.600000 *  0.900000 *  0.500000 *   0.00000    1.000000    
    224 Au    c    0.600000 *  0.900000 *  0.700000 *   0.00000    1.000000    
    225 Au    c    0.600000 *  0.900000 *  0.900000 *   0.00000    1.000000    
    226 Au    c    0.800000 *  0.100000 *  0.100000 *   0.00000    1.000000    
    227 Au    c    0.800000 *  0.100000 *  0.300000 *   0.00000    1.000000    
    228 Au    c    0.800000 *  0.100000 *  0.500000 *   0.00000    1.000000    
    229 Au    c    0.800000 *  0.100000 *  0.700000 *   0.00000    1.000000    
    230 Au    c    0.800000 *  0.100000 *  0.900000 *   0.00000    1.000000    
    231 Au    c    0.800000 *  0.300000 *  0.100000 *   0.00000    1.000000    
    232 Au    c    0.800000 *  0.300000 *  0.300000 *   0.00000    1.000000    
    233 Au    c    0.800000 *  0.300000 *  0.500000 *   0.00000    1.000000    
    234 Au    c    0.800000 *  0.300000 *  0.700000 *   0.00000    1.000000    
    235 Au    c    0.800000 *  0.300000 *  0.900000 *   0.00000    1.000000    
    236 Au    c    0.800000 *  0.500000 *  0.100000 *   0.00000    1.000000    
    237 Au    c    0.800000 *  0.500000 *  0.300000 *   0.00000    1.000000    
    238 Au    c    0.800000 *  0.500000 *  0.500000 *   0.00000    1.000000    
    239 Au    c    0.800000 *  0.500000 *  0.700000 *   0.00000    1.000000    
    240 Au    c    0.800000 *  0.500000 *  0.900000 *   0.00000    1.000000    
    241 Au    c    0.800000 *  0.700000 *  0.100000 *   0.00000    1.000000    
    242 Au    c    0.800000 *  0.700000 *  0.300000 *   0.00000    1.000000    
    243 Au    c    0.800000 *  0.700000 *  0.500000 *   0.00000    1.000000    
    244 Au    c    0.800000 *  0.700000 *  0.700000 *   0.00000    1.000000    
    245 Au    c    0.800000 *  0.700000 *  0.900000 *   0.00000    1.000000    
    246 Au    c    0.800000 *  0.900000 *  0.100000 *   0.00000    1.000000    
    247 Au    c    0.800000 *  0.900000 *  0.300000 *   0.00000    1.000000    
    248 Au    c    0.800000 *  0.900000 *  0.500000 *   0.00000    1.000000    
    249 Au    c    0.800000 *  0.900000 *  0.700000 *   0.00000    1.000000    
    250 Au    c    0.800000 *  0.900000 *  0.900000 *   0.00000    1.000000    
    251 Au    c    0.100000 *  0.000000 *  0.300000 *   0.00000    1.000000    
    252 Au    c    0.100000 *  0.000000 *  0.500000 *   0.00000    1.000000    
    253 Au    c    0.100000 *  0.000000 *  0.700000 *   0.00000    1.000000    
    254 Au    c    0.100000 *  0.000000 *  0.900000 *   0.00000    1.000000    
    255 Au    c    0.100000 *  0.200000 *  0.100000 *   0.00000    1.000000    
    256 Au    c    0.100000 *  0.200000 *  0.300000 *   0.00000    1.000000    
    257 Au    c    0.100000 *  0.200000 *  0.500000 *   0.00000    1.000000    
    258 Au    c    0.100000 *  0.200000 *  0.700000 *   0.00000    1.000000    
    259 Au    c    0.100000 *  0.200000 *  0.900000 *   0.00000    1.000000    
    260 Au    c    0.100000 *  0.400000 *  0.100000 *   0.00000    1.000000    
    261 Au    c    0.100000 *  0.400000 *  0.300000 *   0.00000    1.000000    
    262 Au    c    0.100000 *  0.400000 *  0.500000 *   0.00000    1.000000    
    263 Au    c    0.100000 *  0.400000 *  0.700000 *   0.00000    1.000000    
    264 Au    c    0.100000 *  0.400000 *  0.900000 *   0.00000    1.000000    
    265 Au    c    0.100000 *  0.600000 *  0.100000 *   0.00000    1.000000    
    266 Au    c    0.100000 *  0.600000 *  0.300000 *   0.00000    1.000000    
    267 Au    c    0.100000 *  0.600000 *  0.500000 *   0.00000    1.000000    
    268 Au    c    0.100000 *  0.600000 *  0.700000 *   0.00000    1.000000    
    269 Au    c    0.100000 *  0.600000 *  0.900000 *   0.00000    1.000000    
    270 Au    c    0.100000 *  0.800000 *  0.100000 *   0.00000    1.000000    
    271 Au    c    0.100000 *  0.800000 *  0.300000 *   0.00000    1.000000    
    272 Au    c    0.100000 *  0.800000 *  0.500000 *   0.00000    1.000000    
    273 Au    c    0.100000 *  0.800000 *  0.700000 *   0.00000    1.000000    
    274 Au    c    0.100000 *  0.800000 *  0.900000 *   0.00000    1.000000    
    275 Au    c    0.300000 *  0.000000 *  0.100000 *   0.00000    1.000000    
    276 Au    c    0.300000 *  0.000000 *  0.300000 *   0.00000    1.000000    
    277 Au    c    0.300000 *  0.000000 *  0.500000 *   0.00000    1.000000    
    278 Au    c    0.300000 *  0.000000 *  0.700000 *   0.00000    1.000000    
    279 Au    c    0.300000 *  0.000000 *  0.900000 *   0.00000    1.000000    
    280 Au    c    0.300000 *  0.200000 *  0.100000 *   0.00000    1.000000    
    281 Au    c    0.300000 *  0.200000 *  0.300000 *   0.00000    1.000000    
    282 Au    c    0.300000 *  0.200000 *  0.500000 *   0.00000    1.000000    
    283 Au    c    0.300000 *  0.200000 *  0.700000 *   0.00000    1.000000    
    284 Au    c    0.300000 *  0.200000 *  0.900000 *   0.00000    1.000000    
    285 Au    c    0.300000 *  0.400000 *  0.100000 *   0.00000    1.000000    
    286 Au    c    0.300000 *  0.400000 *  0.300000 *   0.00000    1.000000    
    287 Au    c    0.300000 *  0.400000 *  0.500000 *   0.00000    1.000000    
    288 Au    c    0.300000 *  0.400000 *  0.700000 *   0.00000    1.000000    
    289 Au    c    0.300000 *  0.400000 *  0.900000 *   0.00000    1.000000    
    290 Au    c    0.300000 *  0.600000 *  0.100000 *   0.00000    1.000000    
    291 Au    c    0.300000 *  0.600000 *  0.300000 *   0.00000    1.000000    
    292 Au    c    0.300000 *  0.600000 *  0.500000 *   0.00000    1.000000    
    293 Au    c    0.300000 *  0.600000 *  0.700000 *   0.00000    1.000000    
    294 Au    c    0.300000 *  0.600000 *  0.900000 *   0.00000    1.000000    
    295 Au    c    0.300000 *  0.800000 *  0.100000 *   0.00000    1.000000    
    296 Au    c    0.300000 *  0.800000 *  0.300000 *   0.00000    1.000000    
    297 Au    c    0.300000 *  0.800000 *  0.500000 *   0.00000    1.000000    
    298 Au    c    0.300000 *  0.800000 *  0.700000 *   0.00000    1.000000    
    299 Au    c    0.300000 *  0.800000 *  0.900000 *   0.00000    1.000000    
    300 Au    c    0.500000 *  0.000000 *  0.100000 *   0.00000    1.000000    
    301 Au    c    0.500000 *  0.000000 *  0.300000 *   0.00000    1.000000    
    302 Au    c    0.500000 *  0.000000 *  0.500000 *   0.00000    1.000000    
    303 Au    c    0.500000 *  0.000000 *  0.700000 *   0.00000    1.000000    
    304 Au    c    0.500000 *  0.000000 *  0.900000 *   0.00000    1.000000    
    305 Au    c    0.500000 *  0.200000 *  0.100000 *   0.00000    1.000000    
    306 Au    c    0.500000 *  0.200000 *  0.300000 *   0.00000    1.000000    
    307 Au    c    0.500000 *  0.200000 *  0.500000 *   0.00000    1.000000    
    308 Au    c    0.500000 *  0.200000 *  0.700000 *   0.00000    1.000000    
    309 Au    c    0.500000 *  0.200000 *  0.900000 *   0.00000    1.000000    
    310 Au    c    0.500000 *  0.400000 *  0.100000 *   0.00000    1.000000    
    311 Au    c    0.500000 *  0.400000 *  0.300000 *   0.00000    1.000000    
    312 Au    c    0.500000 *  0.400000 *  0.500000 *   0.00000    1.000000    
    313 Au    c    0.500000 *  0.400000 *  0.700000 *   0.00000    1.000000    
    314 Au    c    0.500000 *  0.400000 *  0.900000 *   0.00000    1.000000    
    315 Au    c    0.500000 *  0.600000 *  0.100000 *   0.00000    1.000000    
    316 Au    c    0.500000 *  0.600000 *  0.300000 *   0.00000    1.000000    
    317 Au    c    0.500000 *  0.600000 *  0.500000 *   0.00000    1.000000    
    318 Au    c    0.500000 *  0.600000 *  0.700000 *   0.00000    1.000000    
    319 Au    c    0.500000 *  0.600000 *  0.900000 *   0.00000    1.000000    
    320 Au    c    0.500000 *  0.800000 *  0.100000 *   0.00000    1.000000    
    321 Au    c    0.500000 *  0.800000 *  0.300000 *   0.00000    1.000000    
    322 Au    c    0.500000 *  0.800000 *  0.500000 *   0.00000    1.000000    
    323 Au    c    0.500000 *  0.800000 *  0.700000 *   0.00000    1.000000    
    324 Au    c    0.500000 *  0.800000 *  0.900000 *   0.00000    1.000000    
    325 Au    c    0.700000 *  0.000000 *  0.100000 *   0.00000    1.000000    
    326 Au    c    0.700000 *  0.000000 *  0.300000 *   0.00000    1.000000    
    327 Au    c    0.700000 *  0.000000 *  0.500000 *   0.00000    1.000000    
    328 Au    c    0.700000 *  0.000000 *  0.700000 *   0.00000    1.000000    
    329 Au    c    0.700000 *  0.000000 *  0.900000 *   0.00000    1.000000    
    330 Au    c    0.700000 *  0.200000 *  0.100000 *   0.00000    1.000000    
    331 Au    c    0.700000 *  0.200000 *  0.300000 *   0.00000    1.000000    
    332 Au    c    0.700000 *  0.200000 *  0.500000 *   0.00000    1.000000    
    333 Au    c    0.700000 *  0.200000 *  0.700000 *   0.00000    1.000000    
    334 Au    c    0.700000 *  0.200000 *  0.900000 *   0.00000    1.000000    
    335 Au    c    0.700000 *  0.400000 *  0.100000 *   0.00000    1.000000    
    336 Au    c    0.700000 *  0.400000 *  0.300000 *   0.00000    1.000000    
    337 Au    c    0.700000 *  0.400000 *  0.500000 *   0.00000    1.000000    
    338 Au    c    0.700000 *  0.400000 *  0.700000 *   0.00000    1.000000    
    339 Au    c    0.700000 *  0.400000 *  0.900000 *   0.00000    1.000000    
    340 Au    c    0.700000 *  0.600000 *  0.100000 *   0.00000    1.000000    
    341 Au    c    0.700000 *  0.600000 *  0.300000 *   0.00000    1.000000    
    342 Au    c    0.700000 *  0.600000 *  0.500000 *   0.00000    1.000000    
    343 Au    c    0.700000 *  0.600000 *  0.700000 *   0.00000    1.000000    
    344 Au    c    0.700000 *  0.600000 *  0.900000 *   0.00000    1.000000    
    345 Au    c    0.700000 *  0.800000 *  0.100000 *   0.00000    1.000000    
    346 Au    c    0.700000 *  0.800000 *  0.300000 *   0.00000    1.000000    
    347 Au    c    0.700000 *  0.800000 *  0.500000 *   0.00000    1.000000    
    348 Au    c    0.700000 *  0.800000 *  0.700000 *   0.00000    1.000000    
    349 Au    c    0.700000 *  0.800000 *  0.900000 *   0.00000    1.000000    
    350 Au    c    0.900000 *  0.000000 *  0.100000 *   0.00000    1.000000    
    351 Au    c    0.900000 *  0.000000 *  0.300000 *   0.00000    1.000000    
    352 Au    c    0.900000 *  0.000000 *  0.500000 *   0.00000    1.000000    
    353 Au    c    0.900000 *  0.000000 *  0.700000 *   0.00000    1.000000    
    354 Au    c    0.900000 *  0.000000 *  0.900000 *   0.00000    1.000000    
    355 Au    c    0.900000 *  0.200000 *  0.100000 *   0.00000    1.000000    
    356 Au    c    0.900000 *  0.200000 *  0.300000 *   0.00000    1.000000    
    357 Au    c    0.900000 *  0.200000 *  0.500000 *   0.00000    1.000000    
    358 Au    c    0.900000 *  0.200000 *  0.700000 *   0.00000    1.000000    
    359 Au    c    0.900000 *  0.200000 *  0.900000 *   0.00000    1.000000    
    360 Au    c    0.900000 *  0.400000 *  0.100000 *   0.00000    1.000000    
    361 Au    c    0.900000 *  0.400000 *  0.300000 *   0.00000    1.000000    
    362 Au    c    0.900000 *  0.400000 *  0.500000 *   0.00000    1.000000    
    363 Au    c    0.900000 *  0.400000 *  0.700000 *   0.00000    1.000000    
    364 Au    c    0.900000 *  0.400000 *  0.900000 *   0.00000    1.000000    
    365 Au    c    0.900000 *  0.600000 *  0.100000 *   0.00000    1.000000    
    366 Au    c    0.900000 *  0.600000 *  0.300000 *   0.00000    1.000000    
    367 Au    c    0.900000 *  0.600000 *  0.500000 *   0.00000    1.000000    
    368 Au    c    0.900000 *  0.600000 *  0.700000 *   0.00000    1.000000    
    369 Au    c    0.900000 *  0.600000 *  0.900000 *   0.00000    1.000000    
    370 Au    c    0.900000 *  0.800000 *  0.100000 *   0.00000    1.000000    
    371 Au    c    0.900000 *  0.800000 *  0.300000 *   0.00000    1.000000    
    372 Au    c    0.900000 *  0.800000 *  0.500000 *   0.00000    1.000000    
    373 Au    c    0.900000 *  0.800000 *  0.700000 *   0.00000    1.000000    
    374 Au    c    0.900000 *  0.800000 *  0.900000 *   0.00000    1.000000    
    375 Au    c    0.100000 *  0.100000 *  0.000000 *   0.00000    1.000000    
    376 Au    c    0.100000 *  0.100000 *  0.200000 *   0.00000    1.000000    
    377 Au    c    0.100000 *  0.100000 *  0.400000 *   0.00000    1.000000    
    378 Au    c    0.100000 *  0.100000 *  0.600000 *   0.00000    1.000000    
    379 Au    c    0.100000 *  0.100000 *  0.800000 *   0.00000    1.000000    
    380 Au    c    0.100000 *  0.300000 *  0.000000 *   0.00000    1.000000    
    381 Au    c    0.100000 *  0.300000 *  0.200000 *   0.00000    1.000000    
    382 Au    c    0.100000 *  0.300000 *  0.400000 *   0.00000    1.000000    
    383 Au    c    0.100000 *  0.300000 *  0.600000 *   0.00000    1.000000    
    384 Au    c    0.100000 *  0.300000 *  0.800000 *   0.00000    1.000000    
    385 Au    c    0.100000 *  0.500000 *  0.000000 *   0.00000    1.000000    
    386 Au    c    0.100000 *  0.500000 *  0.200000 *   0.00000    1.000000    
    387 Au    c    0.100000 *  0.500000 *  0.400000 *   0.00000    1.000000    
    388 Au    c    0.100000 *  0.500000 *  0.600000 *   0.00000    1.000000    
    389 Au    c    0.100000 *  0.500000 *  0.800000 *   0.00000    1.000000    
    390 Au    c    0.100000 *  0.700000 *  0.000000 *   0.00000    1.000000    
    391 Au    c    0.100000 *  0.700000 *  0.200000 *   0.00000    1.000000    
    392 Au    c    0.100000 *  0.700000 *  0.400000 *   0.00000    1.000000    
    393 Au    c    0.100000 *  0.700000 *  0.600000 *   0.00000    1.000000    
    394 Au    c    0.100000 *  0.700000 *  0.800000 *   0.00000    1.000000    
    395 Au    c    0.100000 *  0.900000 *  0.000000 *   0.00000    1.000000    
    396 Au    c    0.100000 *  0.900000 *  0.200000 *   0.00000    1.000000    
    397 Au    c    0.100000 *  0.900000 *  0.400000 *   0.00000    1.000000    
    398 Au    c    0.100000 *  0.900000 *  0.600000 *   0.00000    1.000000    
    399 Au    c    0.100000 *  0.900000 *  0.800000 *   0.00000    1.000000    
    400 Au    c    0.300000 *  0.100000 *  0.000000 *   0.00000    1.000000    
    401 Au    c    0.300000 *  0.100000 *  0.200000 *   0.00000    1.000000    
    402 Au    c    0.300000 *  0.100000 *  0.400000 *   0.00000    1.000000    
    403 Au    c    0.300000 *  0.100000 *  0.600000 *   0.00000    1.000000    
    404 Au    c    0.300000 *  0.100000 *  0.800000 *   0.00000    1.000000    
    405 Au    c    0.300000 *  0.300000 *  0.000000 *   0.00000    1.000000    
    406 Au    c    0.300000 *  0.300000 *  0.200000 *   0.00000    1.000000    
    407 Au    c    0.300000 *  0.300000 *  0.400000 *   0.00000    1.000000    
    408 Au    c    0.300000 *  0.300000 *  0.600000 *   0.00000    1.000000    
    409 Au    c    0.300000 *  0.300000 *  0.800000 *   0.00000    1.000000    
    410 Au    c    0.300000 *  0.500000 *  0.000000 *   0.00000    1.000000    
    411 Au    c    0.300000 *  0.500000 *  0.200000 *   0.00000    1.000000    
    412 Au    c    0.300000 *  0.500000 *  0.400000 *   0.00000    1.000000    
    413 Au    c    0.300000 *  0.500000 *  0.600000 *   0.00000    1.000000    
    414 Au    c    0.300000 *  0.500000 *  0.800000 *   0.00000    1.000000    
    415 Au    c    0.300000 *  0.700000 *  0.000000 *   0.00000    1.000000    
    416 Au    c    0.300000 *  0.700000 *  0.200000 *   0.00000    1.000000    
    417 Au    c    0.300000 *  0.700000 *  0.400000 *   0.00000    1.000000    
    418 Au    c    0.300000 *  0.700000 *  0.600000 *   0.00000    1.000000    
    419 Au    c    0.300000 *  0.700000 *  0.800000 *   0.00000    1.000000    
    420 Au    c    0.300000 *  0.900000 *  0.000000 *   0.00000    1.000000    
    421 Au    c    0.300000 *  0.900000 *  0.200000 *   0.00000    1.000000    
    422 Au    c    0.300000 *  0.900000 *  0.400000 *   0.00000    1.000000    
    423 Au    c    0.300000 *  0.900000 *  0.600000 *   0.00000    1.000000    
    424 Au    c    0.300000 *  0.900000 *  0.800000 *   0.00000    1.000000    
    425 Au    c    0.500000 *  0.100000 *  0.000000 *   0.00000    1.000000    
    426 Au    c    0.500000 *  0.100000 *  0.200000 *   0.00000    1.000000    
    427 Au    c    0.500000 *  0.100000 *  0.400000 *   0.00000    1.000000    
    428 Au    c    0.500000 *  0.100000 *  0.600000 *   0.00000    1.000000    
    429 Au    c    0.500000 *  0.100000 *  0.800000 *   0.00000    1.000000    
    430 Au    c    0.500000 *  0.300000 *  0.000000 *   0.00000    1.000000    
    431 Au    c    0.500000 *  0.300000 *  0.200000 *   0.00000    1.000000    
    432 Au    c    0.500000 *  0.300000 *  0.400000 *   0.00000    1.000000    
    433 Au    c    0.500000 *  0.300000 *  0.600000 *   0.00000    1.000000    
    434 Au    c    0.500000 *  0.300000 *  0.800000 *   0.00000    1.000000    
    435 Au    c    0.500000 *  0.500000 *  0.000000 *   0.00000    1.000000    
    436 Au    c    0.500000 *  0.500000 *  0.200000 *   0.00000    1.000000    
    437 Au    c    0.500000 *  0.500000 *  0.400000 *   0.00000    1.000000    
    438 Au    c    0.500000 *  0.500000 *  0.600000 *   0.00000    1.000000    
    439 Au    c    0.500000 *  0.500000 *  0.800000 *   0.00000    1.000000    
    440 Au    c    0.500000 *  0.700000 *  0.000000 *   0.00000    1.000000    
    441 Au    c    0.500000 *  0.700000 *  0.200000 *   0.00000    1.000000    
    442 Au    c    0.500000 *  0.700000 *  0.400000 *   0.00000    1.000000    
    443 Au    c    0.500000 *  0.700000 *  0.600000 *   0.00000    1.000000    
    444 Au    c    0.500000 *  0.700000 *  0.800000 *   0.00000    1.000000    
    445 Au    c    0.500000 *  0.900000 *  0.000000 *   0.00000    1.000000    
    446 Au    c    0.500000 *  0.900000 *  0.200000 *   0.00000    1.000000    
    447 Au    c    0.500000 *  0.900000 *  0.400000 *   0.00000    1.000000    
    448 Au    c    0.500000 *  0.900000 *  0.600000 *   0.00000    1.000000    
    449 Au    c    0.500000 *  0.900000 *  0.800000 *   0.00000    1.000000    
    450 Au    c    0.700000 *  0.100000 *  0.000000 *   0.00000    1.000000    
    451 Au    c    0.700000 *  0.100000 *  0.200000 *   0.00000    1.000000    
    452 Au    c    0.700000 *  0.100000 *  0.400000 *   0.00000    1.000000    
    453 Au    c    0.700000 *  0.100000 *  0.600000 *   0.00000    1.000000    
    454 Au    c    0.700000 *  0.100000 *  0.800000 *   0.00000    1.000000    
    455 Au    c    0.700000 *  0.300000 *  0.000000 *   0.00000    1.000000    
    456 Au    c    0.700000 *  0.300000 *  0.200000 *   0.00000    1.000000    
    457 Au    c    0.700000 *  0.300000 *  0.400000 *   0.00000    1.000000    
    458 Au    c    0.700000 *  0.300000 *  0.600000 *   0.00000    1.000000    
    459 Au    c    0.700000 *  0.300000 *  0.800000 *   0.00000    1.000000    
    460 Au    c    0.700000 *  0.500000 *  0.000000 *   0.00000    1.000000    
    461 Au    c    0.700000 *  0.500000 *  0.200000 *   0.00000    1.000000    
    462 Au    c    0.700000 *  0.500000 *  0.400000 *   0.00000    1.000000    
    463 Au    c    0.700000 *  0.500000 *  0.600000 *   0.00000    1.000000    
    464 Au    c    0.700000 *  0.500000 *  0.800000 *   0.00000    1.000000    
    465 Au    c    0.700000 *  0.700000 *  0.000000 *   0.00000    1.000000    
    466 Au    c    0.700000 *  0.700000 *  0.200000 *   0.00000    1.000000    
    467 Au    c    0.700000 *  0.700000 *  0.400000 *   0.00000    1.000000    
    468 Au    c    0.700000 *  0.700000 *  0.600000 *   0.00000    1.000000    
    469 Au    c    0.700000 *  0.700000 *  0.800000 *   0.00000    1.000000    
    470 Au    c    0.700000 *  0.900000 *  0.000000 *   0.00000    1.000000    
    471 Au    c    0.700000 *  0.900000 *  0.200000 *   0.00000    1.000000    
    472 Au    c    0.700000 *  0.900000 *  0.400000 *   0.00000    1.000000    
    473 Au    c    0.700000 *  0.900000 *  0.600000 *   0.00000    1.000000    
    474 Au    c    0.700000 *  0.900000 *  0.800000 *   0.00000    1.000000    
    475 Au    c    0.900000 *  0.100000 *  0.000000 *   0.00000    1.000000    
    476 Au    c    0.900000 *  0.100000 *  0.200000 *   0.00000    1.000000    
    477 Au    c    0.900000 *  0.100000 *  0.400000 *   0.00000    1.000000    
    478 Au    c    0.900000 *  0.100000 *  0.600000 *   0.00000    1.000000    
    479 Au    c    0.900000 *  0.100000 *  0.800000 *   0.00000    1.000000    
    480 Au    c    0.900000 *  0.300000 *  0.000000 *   0.00000    1.000000    
    481 Au    c    0.900000 *  0.300000 *  0.200000 *   0.00000    1.000000    
    482 Au    c    0.900000 *  0.300000 *  0.400000 *   0.00000    1.000000    
    483 Au    c    0.900000 *  0.300000 *  0.600000 *   0.00000    1.000000    
    484 Au    c    0.900000 *  0.300000 *  0.800000 *   0.00000    1.000000    
    485 Au    c    0.900000 *  0.500000 *  0.000000 *   0.00000    1.000000    
    486 Au    c    0.900000 *  0.500000 *  0.200000 *   0.00000    1.000000    
    487 Au    c    0.900000 *  0.500000 *  0.400000 *   0.00000    1.000000    
    488 Au    c    0.900000 *  0.500000 *  0.600000 *   0.00000    1.000000    
    489 Au    c    0.900000 *  0.500000 *  0.800000 *   0.00000    1.000000    
    490 Au    c    0.900000 *  0.700000 *  0.000000 *   0.00000    1.000000    
    491 Au    c    0.900000 *  0.700000 *  0.200000 *   0.00000    1.000000    
    492 Au    c    0.900000 *  0.700000 *  0.400000 *   0.00000    1.000000    
    493 Au    c    0.900000 *  0.700000 *  0.600000 *   0.00000    1.000000    
    494 Au    c    0.900000 *  0.700000 *  0.800000 *   0.00000    1.000000    
    495 Au    c    0.900000 *  0.900000 *  0.000000 *   0.00000    1.000000    
    496 Au    c    0.900000 *  0.900000 *  0.200000 *   0.00000    1.000000    
    497 Au    c    0.900000 *  0.900000 *  0.400000 *   0.00000    1.000000    
    498 Au    c    0.900000 *  0.900000 *  0.600000 *   0.00000    1.000000    
    499 Au    c    0.900000 *  0.900000 *  0.800000 *   0.00000    1.000000    
--------------------------------------------------------------------------------



  Distance calculation :


  Cutoff for distances  =      2.000000 Angstroms

--------------------------------------------------------------------------------
  Asymmetric unit site  Full lattice sites    No.  Distance      No.  Distance
      No.   At.No.            At.No.                (Angs)             (Angs) 
--------------------------------------------------------------------------------



********************************************************************************
*  General input information                                                   *
********************************************************************************

  Species output for all configurations : 

--------------------------------------------------------------------------------
  Species    Type    Atomic    Atomic    Charge       Radii (Angs)     Library
                     Number     Mass       (e)     Cova   Ionic  VDW   Symbol
--------------------------------------------------------------------------------
    Au       Core       79     196.97   0.000000   1.500  0.000  1.850          
--------------------------------------------------------------------------------


  Lattice summation method               =    Ewald          (3-D)
                                         =    Parry          (2-D)
                                         =    Saunders et al (1-D)
  Accuracy factor for lattice sums       =   12.000


  Time limit = Infinity

  Maximum range for interatomic potentials =    100000.000000 Angstroms

  General interatomic potentials :

--------------------------------------------------------------------------------
Atom  Types   Potential      Parameter       Value         Units   Cutoffs(Ang)
  1     2                                                            Min /  Max 
--------------------------------------------------------------------------------
Au   c Au   c Lennard       Lennard-Jones A  214108.20    eV*Ang^m  0.000 40.000
                            Lennard-Jones B  625.48200    eV*Ang^n  
                            Exponent m        12          None
                            Exponent n         6          None
--------------------------------------------------------------------------------

********************************************************************************
*  Output for configuration   1                                                *
********************************************************************************


  Components of energy : 

--------------------------------------------------------------------------------
  Interatomic potentials     =       -1958.14165374 eV    
  Monopole - monopole (real) =           0.00000000 eV    
  Monopole - monopole (recip)=           0.00000000 eV    
  Monopole - monopole (total)=           0.00000000 eV    
--------------------------------------------------------------------------------
  Total lattice energy       =       -1958.14165374 eV    
--------------------------------------------------------------------------------
  Total lattice energy       =         -188930.7366 kJ/(mole unit cells)
--------------------------------------------------------------------------------


  Number of variables =     1500

  Maximum number of calculations  =          1000
  Maximum Hessian update interval =            10
  Maximum step size               =   1.000000000
  Maximum parameter tolerance     =   0.000010000
  Maximum function  tolerance     =   0.000010000
  Maximum gradient  tolerance     =   0.001000000
  Maximum gradient  component     =   0.010000000

  Symmetry not applied to optimisation

  Cell parameters to be optimised using strains

  Newton-Raphson optimiser to be used

  BFGS hessian update to be used

  Lower half triangular hessian to be used

  Start of bulk optimisation :

  Cycle:      0 Energy:     -1958.141654  Gnorm:      0.023255  CPU:    0.999
  ** Hessian calculated **
  Cycle:      1 Energy:     -1958.199530  Gnorm:      0.000726  CPU:    3.153
  Cycle:      2 Energy:     -1958.199564  Gnorm:      0.000019  CPU:    4.280


  **** Optimisation achieved ****


  Final energy =   -1958.19956384 eV
  Final Gnorm  =       0.00000049

  Components of energy : 

--------------------------------------------------------------------------------
  Interatomic potentials     =       -1958.19956384 eV    
  Monopole - monopole (real) =           0.00000000 eV    
  Monopole - monopole (recip)=           0.00000000 eV    
  Monopole - monopole (total)=           0.00000000 eV    
--------------------------------------------------------------------------------
  Total lattice energy       =       -1958.19956384 eV    
--------------------------------------------------------------------------------
  Total lattice energy       =         -188936.3241 kJ/(mole unit cells)
--------------------------------------------------------------------------------

  Final fractional coordinates of atoms :

--------------------------------------------------------------------------------
   No.  Atomic        x           y          z          Radius
        Label       (Frac)      (Frac)     (Frac)       (Angs) 
--------------------------------------------------------------------------------
     1  Au    c     0.000000    0.000000    0.000000    0.000000
     2  Au    c     1.000000    1.000000    0.198594    0.000000
     3  Au    c     0.999259    1.000000    0.399395    0.000000
     4  Au    c     0.999285    1.000000    0.599297    0.000000
     5  Au    c     0.999259    1.000000    0.799199    0.000000
     6  Au    c     0.999394    0.199894    0.999394    0.000000
     7  Au    c     0.999394    0.199894    0.199200    0.000000
     8  Au    c     0.999321    0.199961    0.399248    0.000000
     9  Au    c     0.999289    0.200015    0.599297    0.000000
    10  Au    c     0.999321    0.199961    0.799346    0.000000
    11  Au    c     0.999282    0.400030    0.999282    0.000000
    12  Au    c     0.999282    0.400030    0.199312    0.000000
    13  Au    c     0.999302    0.399977    0.399283    0.000000
    14  Au    c     0.999302    0.399992    0.599297    0.000000
    15  Au    c     0.999302    0.399977    0.799311    0.000000
    16  Au    c     0.999282    0.599970    0.999282    0.000000
    17  Au    c     0.999282    0.599970    0.199312    0.000000
    18  Au    c     0.999302    0.600023    0.399283    0.000000
    19  Au    c     0.999302    0.600008    0.599297    0.000000
    20  Au    c     0.999302    0.600023    0.799311    0.000000
    21  Au    c     0.999394    0.800106    0.999394    0.000000
    22  Au    c     0.999394    0.800106    0.199200    0.000000
    23  Au    c     0.999321    0.800039    0.399248    0.000000
    24  Au    c     0.999289    0.799985    0.599297    0.000000
    25  Au    c     0.999321    0.800039    0.799346    0.000000
    26  Au    c     0.198594    1.000000    1.000000    0.000000
    27  Au    c     0.198594    1.000000    0.198594    0.000000
    28  Au    c     0.199335    1.000000    0.399395    0.000000
    29  Au    c     0.199309    1.000000    0.599297    0.000000
    30  Au    c     0.199335    1.000000    0.799199    0.000000
    31  Au    c     0.199200    0.199894    0.999394    0.000000
    32  Au    c     0.199200    0.199894    0.199200    0.000000
    33  Au    c     0.199273    0.199961    0.399248    0.000000
    34  Au    c     0.199305    0.200015    0.599297    0.000000
    35  Au    c     0.199273    0.199961    0.799346    0.000000
    36  Au    c     0.199312    0.400030    0.999282    0.000000
    37  Au    c     0.199312    0.400030    0.199312    0.000000
    38  Au    c     0.199292    0.399977    0.399283    0.000000
    39  Au    c     0.199293    0.399992    0.599297    0.000000
    40  Au    c     0.199292    0.399977    0.799311    0.000000
    41  Au    c     0.199312    0.599970    0.999282    0.000000
    42  Au    c     0.199312    0.599970    0.199312    0.000000
    43  Au    c     0.199292    0.600023    0.399283    0.000000
    44  Au    c     0.199293    0.600008    0.599297    0.000000
    45  Au    c     0.199292    0.600023    0.799311    0.000000
    46  Au    c     0.199200    0.800106    0.999394    0.000000
    47  Au    c     0.199200    0.800106    0.199200    0.000000
    48  Au    c     0.199273    0.800039    0.399248    0.000000
    49  Au    c     0.199305    0.799985    0.599297    0.000000
    50  Au    c     0.199273    0.800039    0.799346    0.000000
    51  Au    c     0.399395    1.000000    0.999259    0.000000
    52  Au    c     0.399395    1.000000    0.199335    0.000000
    53  Au    c     0.399230    1.000000    0.399230    0.000000
    54  Au    c     0.399305    1.000000    0.599297    0.000000
    55  Au    c     0.399230    1.000000    0.799364    0.000000
    56  Au    c     0.399248    0.199961    0.999321    0.000000
    57  Au    c     0.399248    0.199961    0.199273    0.000000
    58  Au    c     0.399268    0.199981    0.399268    0.000000
    59  Au    c     0.399290    0.199995    0.599297    0.000000
    60  Au    c     0.399268    0.199981    0.799326    0.000000
    61  Au    c     0.399283    0.399977    0.999302    0.000000
    62  Au    c     0.399283    0.399977    0.199292    0.000000
    63  Au    c     0.399286    0.399988    0.399286    0.000000
    64  Au    c     0.399290    0.399994    0.599297    0.000000
    65  Au    c     0.399286    0.399988    0.799308    0.000000
    66  Au    c     0.399283    0.600023    0.999302    0.000000
    67  Au    c     0.399283    0.600023    0.199292    0.000000
    68  Au    c     0.399286    0.600012    0.399286    0.000000
    69  Au    c     0.399290    0.600006    0.599297    0.000000
    70  Au    c     0.399286    0.600012    0.799308    0.000000
    71  Au    c     0.399248    0.800039    0.999321    0.000000
    72  Au    c     0.399248    0.800039    0.199273    0.000000
    73  Au    c     0.399268    0.800019    0.399268    0.000000
    74  Au    c     0.399290    0.800005    0.599297    0.000000
    75  Au    c     0.399268    0.800019    0.799326    0.000000
    76  Au    c     0.599297    1.000000    0.999285    0.000000
    77  Au    c     0.599297    1.000000    0.199309    0.000000
    78  Au    c     0.599297    1.000000    0.399305    0.000000
    79  Au    c     0.599297    1.000000    0.599297    0.000000
    80  Au    c     0.599297    1.000000    0.799289    0.000000
    81  Au    c     0.599297    0.200015    0.999289    0.000000
    82  Au    c     0.599297    0.200015    0.199305    0.000000
    83  Au    c     0.599297    0.199995    0.399290    0.000000
    84  Au    c     0.599297    0.199993    0.599297    0.000000
    85  Au    c     0.599297    0.199995    0.799304    0.000000
    86  Au    c     0.599297    0.399992    0.999302    0.000000
    87  Au    c     0.599297    0.399992    0.199293    0.000000
    88  Au    c     0.599297    0.399994    0.399290    0.000000
    89  Au    c     0.599297    0.399996    0.599297    0.000000
    90  Au    c     0.599297    0.399994    0.799304    0.000000
    91  Au    c     0.599297    0.600008    0.999302    0.000000
    92  Au    c     0.599297    0.600008    0.199293    0.000000
    93  Au    c     0.599297    0.600006    0.399290    0.000000
    94  Au    c     0.599297    0.600004    0.599297    0.000000
    95  Au    c     0.599297    0.600006    0.799304    0.000000
    96  Au    c     0.599297    0.799985    0.999289    0.000000
    97  Au    c     0.599297    0.799985    0.199305    0.000000
    98  Au    c     0.599297    0.800005    0.399290    0.000000
    99  Au    c     0.599297    0.800007    0.599297    0.000000
   100  Au    c     0.599297    0.800005    0.799304    0.000000
   101  Au    c     0.799199    1.000000    0.999259    0.000000
   102  Au    c     0.799199    1.000000    0.199335    0.000000
   103  Au    c     0.799364    1.000000    0.399230    0.000000
   104  Au    c     0.799289    1.000000    0.599297    0.000000
   105  Au    c     0.799364    1.000000    0.799364    0.000000
   106  Au    c     0.799346    0.199961    0.999321    0.000000
   107  Au    c     0.799346    0.199961    0.199273    0.000000
   108  Au    c     0.799326    0.199981    0.399268    0.000000
   109  Au    c     0.799304    0.199995    0.599297    0.000000
   110  Au    c     0.799326    0.199981    0.799326    0.000000
   111  Au    c     0.799311    0.399977    0.999302    0.000000
   112  Au    c     0.799311    0.399977    0.199292    0.000000
   113  Au    c     0.799308    0.399988    0.399286    0.000000
   114  Au    c     0.799304    0.399994    0.599297    0.000000
   115  Au    c     0.799308    0.399988    0.799308    0.000000
   116  Au    c     0.799311    0.600023    0.999302    0.000000
   117  Au    c     0.799311    0.600023    0.199292    0.000000
   118  Au    c     0.799308    0.600012    0.399286    0.000000
   119  Au    c     0.799304    0.600006    0.599297    0.000000
   120  Au    c     0.799308    0.600012    0.799308    0.000000
   121  Au    c     0.799346    0.800039    0.999321    0.000000
   122  Au    c     0.799346    0.800039    0.199273    0.000000
   123  Au    c     0.799326    0.800019    0.399268    0.000000
   124  Au    c     0.799304    0.800005    0.599297    0.000000
   125  Au    c     0.799326    0.800019    0.799326    0.000000
   126  Au    c     0.000000    0.099297    0.099297    0.000000
   127  Au    c     0.999394    0.099903    0.299191    0.000000
   128  Au    c     0.999282    0.100015    0.499328    0.000000
   129  Au    c     0.999282    0.100015    0.699267    0.000000
   130  Au    c     0.999394    0.099903    0.899403    0.000000
   131  Au    c     0.999259    0.300098    0.099297    0.000000
   132  Au    c     0.999321    0.299951    0.299258    0.000000
   133  Au    c     0.999302    0.299986    0.499274    0.000000
   134  Au    c     0.999302    0.299986    0.699320    0.000000
   135  Au    c     0.999321    0.299951    0.899336    0.000000
   136  Au    c     0.999285    0.500000    0.099297    0.000000
   137  Au    c     0.999289    0.500000    0.299312    0.000000
   138  Au    c     0.999302    0.500000    0.499289    0.000000
   139  Au    c     0.999302    0.500000    0.699305    0.000000
   140  Au    c     0.999289    0.500000    0.899282    0.000000
   141  Au    c     0.999259    0.699902    0.099297    0.000000
   142  Au    c     0.999321    0.700049    0.299258    0.000000
   143  Au    c     0.999302    0.700014    0.499274    0.000000
   144  Au    c     0.999302    0.700014    0.699320    0.000000
   145  Au    c     0.999321    0.700049    0.899336    0.000000
   146  Au    c     0.000000    0.900703    0.099297    0.000000
   147  Au    c     0.999394    0.900097    0.299191    0.000000
   148  Au    c     0.999282    0.899985    0.499328    0.000000
   149  Au    c     0.999282    0.899985    0.699267    0.000000
   150  Au    c     0.999394    0.900097    0.899403    0.000000
   151  Au    c     0.198594    0.099297    0.099297    0.000000
   152  Au    c     0.199200    0.099903    0.299191    0.000000
   153  Au    c     0.199312    0.100015    0.499328    0.000000
   154  Au    c     0.199312    0.100015    0.699267    0.000000
   155  Au    c     0.199200    0.099903    0.899403    0.000000
   156  Au    c     0.199335    0.300098    0.099297    0.000000
   157  Au    c     0.199273    0.299951    0.299258    0.000000
   158  Au    c     0.199292    0.299986    0.499274    0.000000
   159  Au    c     0.199292    0.299986    0.699320    0.000000
   160  Au    c     0.199273    0.299951    0.899336    0.000000
   161  Au    c     0.199309    0.500000    0.099297    0.000000
   162  Au    c     0.199305    0.500000    0.299312    0.000000
   163  Au    c     0.199293    0.500000    0.499289    0.000000
   164  Au    c     0.199293    0.500000    0.699305    0.000000
   165  Au    c     0.199305    0.500000    0.899282    0.000000
   166  Au    c     0.199335    0.699902    0.099297    0.000000
   167  Au    c     0.199273    0.700049    0.299258    0.000000
   168  Au    c     0.199292    0.700014    0.499274    0.000000
   169  Au    c     0.199292    0.700014    0.699320    0.000000
   170  Au    c     0.199273    0.700049    0.899336    0.000000
   171  Au    c     0.198594    0.900703    0.099297    0.000000
   172  Au    c     0.199200    0.900097    0.299191    0.000000
   173  Au    c     0.199312    0.899985    0.499328    0.000000
   174  Au    c     0.199312    0.899985    0.699267    0.000000
   175  Au    c     0.199200    0.900097    0.899403    0.000000
   176  Au    c     0.399395    0.100038    0.099297    0.000000
   177  Au    c     0.399248    0.099976    0.299258    0.000000
   178  Au    c     0.399283    0.099995    0.499274    0.000000
   179  Au    c     0.399283    0.099995    0.699320    0.000000
   180  Au    c     0.399248    0.099976    0.899336    0.000000
   181  Au    c     0.399230    0.299933    0.099297    0.000000
   182  Au    c     0.399268    0.299971    0.299278    0.000000
   183  Au    c     0.399286    0.299989    0.499285    0.000000
   184  Au    c     0.399286    0.299989    0.699309    0.000000
   185  Au    c     0.399268    0.299971    0.899316    0.000000
   186  Au    c     0.399305    0.500000    0.099297    0.000000
   187  Au    c     0.399290    0.500000    0.299292    0.000000
   188  Au    c     0.399290    0.500000    0.499291    0.000000
   189  Au    c     0.399290    0.500000    0.699303    0.000000
   190  Au    c     0.399290    0.500000    0.899302    0.000000
   191  Au    c     0.399230    0.700067    0.099297    0.000000
   192  Au    c     0.399268    0.700029    0.299278    0.000000
   193  Au    c     0.399286    0.700011    0.499285    0.000000
   194  Au    c     0.399286    0.700011    0.699309    0.000000
   195  Au    c     0.399268    0.700029    0.899316    0.000000
   196  Au    c     0.399395    0.899962    0.099297    0.000000
   197  Au    c     0.399248    0.900024    0.299258    0.000000
   198  Au    c     0.399283    0.900005    0.499274    0.000000
   199  Au    c     0.399283    0.900005    0.699320    0.000000
   200  Au    c     0.399248    0.900024    0.899336    0.000000
   201  Au    c     0.599297    0.100012    0.099297    0.000000
   202  Au    c     0.599297    0.100008    0.299312    0.000000
   203  Au    c     0.599297    0.099996    0.499289    0.000000
   204  Au    c     0.599297    0.099996    0.699305    0.000000
   205  Au    c     0.599297    0.100008    0.899282    0.000000
   206  Au    c     0.599297    0.300008    0.099297    0.000000
   207  Au    c     0.599297    0.299993    0.299292    0.000000
   208  Au    c     0.599297    0.299993    0.499291    0.000000
   209  Au    c     0.599297    0.299993    0.699303    0.000000
   210  Au    c     0.599297    0.299993    0.899302    0.000000
   211  Au    c     0.599297    0.500000    0.099297    0.000000
   212  Au    c     0.599297    0.500000    0.299290    0.000000
   213  Au    c     0.599297    0.500000    0.499293    0.000000
   214  Au    c     0.599297    0.500000    0.699301    0.000000
   215  Au    c     0.599297    0.500000    0.899304    0.000000
   216  Au    c     0.599297    0.699992    0.099297    0.000000
   217  Au    c     0.599297    0.700007    0.299292    0.000000
   218  Au    c     0.599297    0.700007    0.499291    0.000000
   219  Au    c     0.599297    0.700007    0.699303    0.000000
   220  Au    c     0.599297    0.700007    0.899302    0.000000
   221  Au    c     0.599297    0.899988    0.099297    0.000000
   222  Au    c     0.599297    0.899992    0.299312    0.000000
   223  Au    c     0.599297    0.900004    0.499289    0.000000
   224  Au    c     0.599297    0.900004    0.699305    0.000000
   225  Au    c     0.599297    0.899992    0.899282    0.000000
   226  Au    c     0.799199    0.100038    0.099297    0.000000
   227  Au    c     0.799346    0.099976    0.299258    0.000000
   228  Au    c     0.799311    0.099995    0.499274    0.000000
   229  Au    c     0.799311    0.099995    0.699320    0.000000
   230  Au    c     0.799346    0.099976    0.899336    0.000000
   231  Au    c     0.799364    0.299933    0.099297    0.000000
   232  Au    c     0.799326    0.299971    0.299278    0.000000
   233  Au    c     0.799308    0.299989    0.499285    0.000000
   234  Au    c     0.799308    0.299989    0.699309    0.000000
   235  Au    c     0.799326    0.299971    0.899316    0.000000
   236  Au    c     0.799289    0.500000    0.099297    0.000000
   237  Au    c     0.799304    0.500000    0.299292    0.000000
   238  Au    c     0.799304    0.500000    0.499291    0.000000
   239  Au    c     0.799304    0.500000    0.699303    0.000000
   240  Au    c     0.799304    0.500000    0.899302    0.000000
   241  Au    c     0.799364    0.700067    0.099297    0.000000
   242  Au    c     0.799326    0.700029    0.299278    0.000000
   243  Au    c     0.799308    0.700011    0.499285    0.000000
   244  Au    c     0.799308    0.700011    0.699309    0.000000
   245  Au    c     0.799326    0.700029    0.899316    0.000000
   246  Au    c     0.799199    0.899962    0.099297    0.000000
   247  Au    c     0.799346    0.900024    0.299258    0.000000
   248  Au    c     0.799311    0.900005    0.499274    0.000000
   249  Au    c     0.799311    0.900005    0.699320    0.000000
   250  Au    c     0.799346    0.900024    0.899336    0.000000
   251  Au    c     0.099297    1.000000    0.299713    0.000000
   252  Au    c     0.099297    1.000000    0.499333    0.000000
   253  Au    c     0.099297    1.000000    0.699261    0.000000
   254  Au    c     0.099297    1.000000    0.898881    0.000000
   255  Au    c     0.099297    0.200416    0.099297    0.000000
   256  Au    c     0.099297    0.199804    0.299101    0.000000
   257  Au    c     0.099297    0.200017    0.499315    0.000000
   258  Au    c     0.099297    0.200017    0.699279    0.000000
   259  Au    c     0.099297    0.199804    0.899493    0.000000
   260  Au    c     0.099297    0.400036    0.099297    0.000000
   261  Au    c     0.099297    0.400018    0.299314    0.000000
   262  Au    c     0.099297    0.399979    0.499276    0.000000
   263  Au    c     0.099297    0.399979    0.699318    0.000000
   264  Au    c     0.099297    0.400018    0.899280    0.000000
   265  Au    c     0.099297    0.599964    0.099297    0.000000
   266  Au    c     0.099297    0.599982    0.299314    0.000000
   267  Au    c     0.099297    0.600021    0.499276    0.000000
   268  Au    c     0.099297    0.600021    0.699318    0.000000
   269  Au    c     0.099297    0.599982    0.899280    0.000000
   270  Au    c     0.099297    0.799584    0.099297    0.000000
   271  Au    c     0.099297    0.800196    0.299101    0.000000
   272  Au    c     0.099297    0.799983    0.499315    0.000000
   273  Au    c     0.099297    0.799983    0.699279    0.000000
   274  Au    c     0.099297    0.800196    0.899493    0.000000
   275  Au    c     0.299713    1.000000    0.099297    0.000000
   276  Au    c     0.299101    1.000000    0.299101    0.000000
   277  Au    c     0.299314    1.000000    0.499315    0.000000
   278  Au    c     0.299314    1.000000    0.699279    0.000000
   279  Au    c     0.299101    1.000000    0.899493    0.000000
   280  Au    c     0.299101    0.199804    0.099297    0.000000
   281  Au    c     0.299237    0.199940    0.299237    0.000000
   282  Au    c     0.299289    0.199992    0.499275    0.000000
   283  Au    c     0.299289    0.199992    0.699319    0.000000
   284  Au    c     0.299237    0.199940    0.899357    0.000000
   285  Au    c     0.299314    0.400018    0.099297    0.000000
   286  Au    c     0.299289    0.399978    0.299289    0.000000
   287  Au    c     0.299289    0.399990    0.499287    0.000000
   288  Au    c     0.299289    0.399990    0.699307    0.000000
   289  Au    c     0.299289    0.399978    0.899305    0.000000
   290  Au    c     0.299314    0.599982    0.099297    0.000000
   291  Au    c     0.299289    0.600022    0.299289    0.000000
   292  Au    c     0.299289    0.600010    0.499287    0.000000
   293  Au    c     0.299289    0.600010    0.699307    0.000000
   294  Au    c     0.299289    0.600022    0.899305    0.000000
   295  Au    c     0.299101    0.800196    0.099297    0.000000
   296  Au    c     0.299237    0.800060    0.299237    0.000000
   297  Au    c     0.299289    0.800008    0.499275    0.000000
   298  Au    c     0.299289    0.800008    0.699319    0.000000
   299  Au    c     0.299237    0.800060    0.899357    0.000000
   300  Au    c     0.499333    1.000000    0.099297    0.000000
   301  Au    c     0.499315    1.000000    0.299314    0.000000
   302  Au    c     0.499276    1.000000    0.499276    0.000000
   303  Au    c     0.499276    1.000000    0.699318    0.000000
   304  Au    c     0.499315    1.000000    0.899280    0.000000
   305  Au    c     0.499315    0.200017    0.099297    0.000000
   306  Au    c     0.499275    0.199992    0.299289    0.000000
   307  Au    c     0.499287    0.199992    0.499287    0.000000
   308  Au    c     0.499287    0.199992    0.699307    0.000000
   309  Au    c     0.499275    0.199992    0.899305    0.000000
   310  Au    c     0.499276    0.399979    0.099297    0.000000
   311  Au    c     0.499287    0.399990    0.299289    0.000000
   312  Au    c     0.499292    0.399994    0.499292    0.000000
   313  Au    c     0.499292    0.399994    0.699303    0.000000
   314  Au    c     0.499287    0.399990    0.899305    0.000000
   315  Au    c     0.499276    0.600021    0.099297    0.000000
   316  Au    c     0.499287    0.600010    0.299289    0.000000
   317  Au    c     0.499292    0.600006    0.499292    0.000000
   318  Au    c     0.499292    0.600006    0.699303    0.000000
   319  Au    c     0.499287    0.600010    0.899305    0.000000
   320  Au    c     0.499315    0.799983    0.099297    0.000000
   321  Au    c     0.499275    0.800008    0.299289    0.000000
   322  Au    c     0.499287    0.800008    0.499287    0.000000
   323  Au    c     0.499287    0.800008    0.699307    0.000000
   324  Au    c     0.499275    0.800008    0.899305    0.000000
   325  Au    c     0.699261    1.000000    0.099297    0.000000
   326  Au    c     0.699279    1.000000    0.299314    0.000000
   327  Au    c     0.699318    1.000000    0.499276    0.000000
   328  Au    c     0.699318    1.000000    0.699318    0.000000
   329  Au    c     0.699279    1.000000    0.899280    0.000000
   330  Au    c     0.699279    0.200017    0.099297    0.000000
   331  Au    c     0.699319    0.199992    0.299289    0.000000
   332  Au    c     0.699307    0.199992    0.499287    0.000000
   333  Au    c     0.699307    0.199992    0.699307    0.000000
   334  Au    c     0.699319    0.199992    0.899305    0.000000
   335  Au    c     0.699318    0.399979    0.099297    0.000000
   336  Au    c     0.699307    0.399990    0.299289    0.000000
   337  Au    c     0.699303    0.399994    0.499292    0.000000
   338  Au    c     0.699303    0.399994    0.699303    0.000000
   339  Au    c     0.699307    0.399990    0.899305    0.000000
   340  Au    c     0.699318    0.600021    0.099297    0.000000
   341  Au    c     0.699307    0.600010    0.299289    0.000000
   342  Au    c     0.699303    0.600006    0.499292    0.000000
   343  Au    c     0.699303    0.600006    0.699303    0.000000
   344  Au    c     0.699307    0.600010    0.899305    0.000000
   345  Au    c     0.699279    0.799983    0.099297    0.000000
   346  Au    c     0.699319    0.800008    0.299289    0.000000
   347  Au    c     0.699307    0.800008    0.499287    0.000000
   348  Au    c     0.699307    0.800008    0.699307    0.000000
   349  Au    c     0.699319    0.800008    0.899305    0.000000
   350  Au    c     0.898881    1.000000    0.099297    0.000000
   351  Au    c     0.899493    1.000000    0.299101    0.000000
   352  Au    c     0.899280    1.000000    0.499315    0.000000
   353  Au    c     0.899280    1.000000    0.699279    0.000000
   354  Au    c     0.899493    1.000000    0.899493    0.000000
   355  Au    c     0.899493    0.199804    0.099297    0.000000
   356  Au    c     0.899357    0.199940    0.299237    0.000000
   357  Au    c     0.899305    0.199992    0.499275    0.000000
   358  Au    c     0.899305    0.199992    0.699319    0.000000
   359  Au    c     0.899357    0.199940    0.899357    0.000000
   360  Au    c     0.899280    0.400018    0.099297    0.000000
   361  Au    c     0.899305    0.399978    0.299289    0.000000
   362  Au    c     0.899305    0.399990    0.499287    0.000000
   363  Au    c     0.899305    0.399990    0.699307    0.000000
   364  Au    c     0.899305    0.399978    0.899305    0.000000
   365  Au    c     0.899280    0.599982    0.099297    0.000000
   366  Au    c     0.899305    0.600022    0.299289    0.000000
   367  Au    c     0.899305    0.600010    0.499287    0.000000
   368  Au    c     0.899305    0.600010    0.699307    0.000000
   369  Au    c     0.899305    0.600022    0.899305    0.000000
   370  Au    c     0.899493    0.800196    0.099297    0.000000
   371  Au    c     0.899357    0.800060    0.299237    0.000000
   372  Au    c     0.899305    0.800008    0.499275    0.000000
   373  Au    c     0.899305    0.800008    0.699319    0.000000
   374  Au    c     0.899357    0.800060    0.899357    0.000000
   375  Au    c     0.099297    0.099297    0.000000    0.000000
   376  Au    c     0.099297    0.099297    0.198594    0.000000
   377  Au    c     0.099297    0.100038    0.399395    0.000000
   378  Au    c     0.099297    0.100012    0.599297    0.000000
   379  Au    c     0.099297    0.100038    0.799199    0.000000
   380  Au    c     0.099297    0.300098    0.999259    0.000000
   381  Au    c     0.099297    0.300098    0.199335    0.000000
   382  Au    c     0.099297    0.299933    0.399230    0.000000
   383  Au    c     0.099297    0.300008    0.599297    0.000000
   384  Au    c     0.099297    0.299933    0.799364    0.000000
   385  Au    c     0.099297    0.500000    0.999285    0.000000
   386  Au    c     0.099297    0.500000    0.199309    0.000000
   387  Au    c     0.099297    0.500000    0.399305    0.000000
   388  Au    c     0.099297    0.500000    0.599297    0.000000
   389  Au    c     0.099297    0.500000    0.799289    0.000000
   390  Au    c     0.099297    0.699902    0.999259    0.000000
   391  Au    c     0.099297    0.699902    0.199335    0.000000
   392  Au    c     0.099297    0.700067    0.399230    0.000000
   393  Au    c     0.099297    0.699992    0.599297    0.000000
   394  Au    c     0.099297    0.700067    0.799364    0.000000
   395  Au    c     0.099297    0.900703    0.000000    0.000000
   396  Au    c     0.099297    0.900703    0.198594    0.000000
   397  Au    c     0.099297    0.899962    0.399395    0.000000
   398  Au    c     0.099297    0.899988    0.599297    0.000000
   399  Au    c     0.099297    0.899962    0.799199    0.000000
   400  Au    c     0.299191    0.099903    0.999394    0.000000
   401  Au    c     0.299191    0.099903    0.199200    0.000000
   402  Au    c     0.299258    0.099976    0.399248    0.000000
   403  Au    c     0.299312    0.100008    0.599297    0.000000
   404  Au    c     0.299258    0.099976    0.799346    0.000000
   405  Au    c     0.299258    0.299951    0.999321    0.000000
   406  Au    c     0.299258    0.299951    0.199273    0.000000
   407  Au    c     0.299278    0.299971    0.399268    0.000000
   408  Au    c     0.299292    0.299993    0.599297    0.000000
   409  Au    c     0.299278    0.299971    0.799326    0.000000
   410  Au    c     0.299312    0.500000    0.999289    0.000000
   411  Au    c     0.299312    0.500000    0.199305    0.000000
   412  Au    c     0.299292    0.500000    0.399290    0.000000
   413  Au    c     0.299290    0.500000    0.599297    0.000000
   414  Au    c     0.299292    0.500000    0.799304    0.000000
   415  Au    c     0.299258    0.700049    0.999321    0.000000
   416  Au    c     0.299258    0.700049    0.199273    0.000000
   417  Au    c     0.299278    0.700029    0.399268    0.000000
   418  Au    c     0.299292    0.700007    0.599297    0.000000
   419  Au    c     0.299278    0.700029    0.799326    0.000000
   420  Au    c     0.299191    0.900097    0.999394    0.000000
   421  Au    c     0.299191    0.900097    0.199200    0.000000
   422  Au    c     0.299258    0.900024    0.399248    0.000000
   423  Au    c     0.299312    0.899992    0.599297    0.000000
   424  Au    c     0.299258    0.900024    0.799346    0.000000
   425  Au    c     0.499328    0.100015    0.999282    0.000000
   426  Au    c     0.499328    0.100015    0.199312    0.000000
   427  Au    c     0.499274    0.099995    0.399283    0.000000
   428  Au    c     0.499289    0.099996    0.599297    0.000000
   429  Au    c     0.499274    0.099995    0.799311    0.000000
   430  Au    c     0.499274    0.299986    0.999302    0.000000
   431  Au    c     0.499274    0.299986    0.199292    0.000000
   432  Au    c     0.499285    0.299989    0.399286    0.000000
   433  Au    c     0.499291    0.299993    0.599297    0.000000
   434  Au    c     0.499285    0.299989    0.799308    0.000000
   435  Au    c     0.499289    0.500000    0.999302    0.000000
   436  Au    c     0.499289    0.500000    0.199293    0.000000
   437  Au    c     0.499291    0.500000    0.399290    0.000000
   438  Au    c     0.499293    0.500000    0.599297    0.000000
   439  Au    c     0.499291    0.500000    0.799304    0.000000
   440  Au    c     0.499274    0.700014    0.999302    0.000000
   441  Au    c     0.499274    0.700014    0.199292    0.000000
   442  Au    c     0.499285    0.700011    0.399286    0.000000
   443  Au    c     0.499291    0.700007    0.599297    0.000000
   444  Au    c     0.499285    0.700011    0.799308    0.000000
   445  Au    c     0.499328    0.899985    0.999282    0.000000
   446  Au    c     0.499328    0.899985    0.199312    0.000000
   447  Au    c     0.499274    0.900005    0.399283    0.000000
   448  Au    c     0.499289    0.900004    0.599297    0.000000
   449  Au    c     0.499274    0.900005    0.799311    0.000000
   450  Au    c     0.699267    0.100015    0.999282    0.000000
   451  Au    c     0.699267    0.100015    0.199312    0.000000
   452  Au    c     0.699320    0.099995    0.399283    0.000000
   453  Au    c     0.699305    0.099996    0.599297    0.000000
   454  Au    c     0.699320    0.099995    0.799311    0.000000
   455  Au    c     0.699320    0.299986    0.999302    0.000000
   456  Au    c     0.699320    0.299986    0.199292    0.000000
   457  Au    c     0.699309    0.299989    0.399286    0.000000
   458  Au    c     0.699303    0.299993    0.599297    0.000000
   459  Au    c     0.699309    0.299989    0.799308    0.000000
   460  Au    c     0.699305    0.500000    0.999302    0.000000
   461  Au    c     0.699305    0.500000    0.199293    0.000000
   462  Au    c     0.699303    0.500000    0.399290    0.000000
   463  Au    c     0.699301    0.500000    0.599297    0.000000
   464  Au    c     0.699303    0.500000    0.799304    0.000000
   465  Au    c     0.699320    0.700014    0.999302    0.000000
   466  Au    c     0.699320    0.700014    0.199292    0.000000
   467  Au    c     0.699309    0.700011    0.399286    0.000000
   468  Au    c     0.699303    0.700007    0.599297    0.000000
   469  Au    c     0.699309    0.700011    0.799308    0.000000
   470  Au    c     0.699267    0.899985    0.999282    0.000000
   471  Au    c     0.699267    0.899985    0.199312    0.000000
   472  Au    c     0.699320    0.900005    0.399283    0.000000
   473  Au    c     0.699305    0.900004    0.599297    0.000000
   474  Au    c     0.699320    0.900005    0.799311    0.000000
   475  Au    c     0.899403    0.099903    0.999394    0.000000
   476  Au    c     0.899403    0.099903    0.199200    0.000000
   477  Au    c     0.899336    0.099976    0.399248    0.000000
   478  Au    c     0.899282    0.100008    0.599297    0.000000
   479  Au    c     0.899336    0.099976    0.799346    0.000000
   480  Au    c     0.899336    0.299951    0.999321    0.000000
   481  Au    c     0.899336    0.299951    0.199273    0.000000
   482  Au    c     0.899316    0.299971    0.399268    0.000000
   483  Au    c     0.899302    0.299993    0.599297    0.000000
   484  Au    c     0.899316    0.299971    0.799326    0.000000
   485  Au    c     0.899282    0.500000    0.999289    0.000000
   486  Au    c     0.899282    0.500000    0.199305    0.000000
   487  Au    c     0.899302    0.500000    0.399290    0.000000
   488  Au    c     0.899304    0.500000    0.599297    0.000000
   489  Au    c     0.899302    0.500000    0.799304    0.000000
   490  Au    c     0.899336    0.700049    0.999321    0.000000
   491  Au    c     0.899336    0.700049    0.199273    0.000000
   492  Au    c     0.899316    0.700029    0.399268    0.000000
   493  Au    c     0.899302    0.700007    0.599297    0.000000
   494  Au    c     0.899316    0.700029    0.799326    0.000000
[...]
    418 z          0.600000      0.599297     0.000703    Fractional   0.12
    419 x          0.300000      0.299278     0.000722    Fractional   0.24
    419 y          0.700000      0.700029     0.000029    Fractional   0.00
    419 z          0.800000      0.799326     0.000674    Fractional   0.08
    420 x          0.300000      0.299191     0.000809    Fractional   0.27
    420 y          0.900000      0.900097     0.000097    Fractional   0.01
    420 z          0.000000      0.999394     0.999394    Fractional   0.00
    421 x          0.300000      0.299191     0.000809    Fractional   0.27
    421 y          0.900000      0.900097     0.000097    Fractional   0.01
    421 z          0.200000      0.199200     0.000800    Fractional   0.40
    422 x          0.300000      0.299258     0.000742    Fractional   0.25
    422 y          0.900000      0.900024     0.000024    Fractional   0.00
    422 z          0.400000      0.399248     0.000752    Fractional   0.19
    423 x          0.300000      0.299312     0.000688    Fractional   0.23
    423 y          0.900000      0.899992     0.000008    Fractional   0.00
    423 z          0.600000      0.599297     0.000703    Fractional   0.12
    424 x          0.300000      0.299258     0.000742    Fractional   0.25
    424 y          0.900000      0.900024     0.000024    Fractional   0.00
    424 z          0.800000      0.799346     0.000654    Fractional   0.08
    425 x          0.500000      0.499328     0.000672    Fractional   0.13
    425 y          0.100000      0.100015     0.000015    Fractional   0.01
    425 z          0.000000      0.999282     0.999282    Fractional   0.00
    426 x          0.500000      0.499328     0.000672    Fractional   0.13
    426 y          0.100000      0.100015     0.000015    Fractional   0.01
    426 z          0.200000      0.199312     0.000688    Fractional   0.34
    427 x          0.500000      0.499274     0.000726    Fractional   0.15
    427 y          0.100000      0.099995     0.000005    Fractional   0.01
    427 z          0.400000      0.399283     0.000717    Fractional   0.18
    428 x          0.500000      0.499289     0.000711    Fractional   0.14
    428 y          0.100000      0.099996     0.000004    Fractional   0.00
    428 z          0.600000      0.599297     0.000703    Fractional   0.12
    429 x          0.500000      0.499274     0.000726    Fractional   0.15
    429 y          0.100000      0.099995     0.000005    Fractional   0.01
    429 z          0.800000      0.799311     0.000689    Fractional   0.09
    430 x          0.500000      0.499274     0.000726    Fractional   0.15
    430 y          0.300000      0.299986     0.000014    Fractional   0.00
    430 z          0.000000      0.999302     0.999302    Fractional   0.00
    431 x          0.500000      0.499274     0.000726    Fractional   0.15
    431 y          0.300000      0.299986     0.000014    Fractional   0.00
    431 z          0.200000      0.199292     0.000708    Fractional   0.35
    432 x          0.500000      0.499285     0.000715    Fractional   0.14
    432 y          0.300000      0.299989     0.000011    Fractional   0.00
    432 z          0.400000      0.399286     0.000714    Fractional   0.18
    433 x          0.500000      0.499291     0.000709    Fractional   0.14
    433 y          0.300000      0.299993     0.000007    Fractional   0.00
    433 z          0.600000      0.599297     0.000703    Fractional   0.12
    434 x          0.500000      0.499285     0.000715    Fractional   0.14
    434 y          0.300000      0.299989     0.000011    Fractional   0.00
    434 z          0.800000      0.799308     0.000692    Fractional   0.09
    435 x          0.500000      0.499289     0.000711    Fractional   0.14
    435 y          0.500000      0.500000     0.000000    Fractional   0.00
    435 z          0.000000      0.999302     0.999302    Fractional   0.00
    436 x          0.500000      0.499289     0.000711    Fractional   0.14
    436 y          0.500000      0.500000     0.000000    Fractional   0.00
    436 z          0.200000      0.199293     0.000707    Fractional   0.35
    437 x          0.500000      0.499291     0.000709    Fractional   0.14
    437 y          0.500000      0.500000     0.000000    Fractional   0.00
    437 z          0.400000      0.399290     0.000710    Fractional   0.18
    438 x          0.500000      0.499293     0.000707    Fractional   0.14
    438 y          0.500000      0.500000     0.000000    Fractional   0.00
    438 z          0.600000      0.599297     0.000703    Fractional   0.12
    439 x          0.500000      0.499291     0.000709    Fractional   0.14
    439 y          0.500000      0.500000     0.000000    Fractional   0.00
    439 z          0.800000      0.799304     0.000696    Fractional   0.09
    440 x          0.500000      0.499274     0.000726    Fractional   0.15
    440 y          0.700000      0.700014     0.000014    Fractional   0.00
    440 z          0.000000      0.999302     0.999302    Fractional   0.00
    441 x          0.500000      0.499274     0.000726    Fractional   0.15
    441 y          0.700000      0.700014     0.000014    Fractional   0.00
    441 z          0.200000      0.199292     0.000708    Fractional   0.35
    442 x          0.500000      0.499285     0.000715    Fractional   0.14
    442 y          0.700000      0.700011     0.000011    Fractional   0.00
    442 z          0.400000      0.399286     0.000714    Fractional   0.18
    443 x          0.500000      0.499291     0.000709    Fractional   0.14
    443 y          0.700000      0.700007     0.000007    Fractional   0.00
    443 z          0.600000      0.599297     0.000703    Fractional   0.12
    444 x          0.500000      0.499285     0.000715    Fractional   0.14
    444 y          0.700000      0.700011     0.000011    Fractional   0.00
    444 z          0.800000      0.799308     0.000692    Fractional   0.09
    445 x          0.500000      0.499328     0.000672    Fractional   0.13
    445 y          0.900000      0.899985     0.000015    Fractional   0.00
    445 z          0.000000      0.999282     0.999282    Fractional   0.00
    446 x          0.500000      0.499328     0.000672    Fractional   0.13
    446 y          0.900000      0.899985     0.000015    Fractional   0.00
    446 z          0.200000      0.199312     0.000688    Fractional   0.34
    447 x          0.500000      0.499274     0.000726    Fractional   0.15
    447 y          0.900000      0.900005     0.000005    Fractional   0.00
    447 z          0.400000      0.399283     0.000717    Fractional   0.18
    448 x          0.500000      0.499289     0.000711    Fractional   0.14
    448 y          0.900000      0.900004     0.000004    Fractional   0.00
    448 z          0.600000      0.599297     0.000703    Fractional   0.12
    449 x          0.500000      0.499274     0.000726    Fractional   0.15
    449 y          0.900000      0.900005     0.000005    Fractional   0.00
    449 z          0.800000      0.799311     0.000689    Fractional   0.09
    450 x          0.700000      0.699267     0.000733    Fractional   0.10
    450 y          0.100000      0.100015     0.000015    Fractional   0.01
    450 z          0.000000      0.999282     0.999282    Fractional   0.00
    451 x          0.700000      0.699267     0.000733    Fractional   0.10
    451 y          0.100000      0.100015     0.000015    Fractional   0.01
    451 z          0.200000      0.199312     0.000688    Fractional   0.34
    452 x          0.700000      0.699320     0.000680    Fractional   0.10
    452 y          0.100000      0.099995     0.000005    Fractional   0.01
    452 z          0.400000      0.399283     0.000717    Fractional   0.18
    453 x          0.700000      0.699305     0.000695    Fractional   0.10
    453 y          0.100000      0.099996     0.000004    Fractional   0.00
    453 z          0.600000      0.599297     0.000703    Fractional   0.12
    454 x          0.700000      0.699320     0.000680    Fractional   0.10
    454 y          0.100000      0.099995     0.000005    Fractional   0.01
    454 z          0.800000      0.799311     0.000689    Fractional   0.09
    455 x          0.700000      0.699320     0.000680    Fractional   0.10
    455 y          0.300000      0.299986     0.000014    Fractional   0.00
    455 z          0.000000      0.999302     0.999302    Fractional   0.00
    456 x          0.700000      0.699320     0.000680    Fractional   0.10
    456 y          0.300000      0.299986     0.000014    Fractional   0.00
    456 z          0.200000      0.199292     0.000708    Fractional   0.35
    457 x          0.700000      0.699309     0.000691    Fractional   0.10
    457 y          0.300000      0.299989     0.000011    Fractional   0.00
    457 z          0.400000      0.399286     0.000714    Fractional   0.18
    458 x          0.700000      0.699303     0.000697    Fractional   0.10
    458 y          0.300000      0.299993     0.000007    Fractional   0.00
    458 z          0.600000      0.599297     0.000703    Fractional   0.12
    459 x          0.700000      0.699309     0.000691    Fractional   0.10
    459 y          0.300000      0.299989     0.000011    Fractional   0.00
    459 z          0.800000      0.799308     0.000692    Fractional   0.09
    460 x          0.700000      0.699305     0.000695    Fractional   0.10
    460 y          0.500000      0.500000     0.000000    Fractional   0.00
    460 z          0.000000      0.999302     0.999302    Fractional   0.00
    461 x          0.700000      0.699305     0.000695    Fractional   0.10
    461 y          0.500000      0.500000     0.000000    Fractional   0.00
    461 z          0.200000      0.199293     0.000707    Fractional   0.35
    462 x          0.700000      0.699303     0.000697    Fractional   0.10
    462 y          0.500000      0.500000     0.000000    Fractional   0.00
    462 z          0.400000      0.399290     0.000710    Fractional   0.18
    463 x          0.700000      0.699301     0.000699    Fractional   0.10
    463 y          0.500000      0.500000     0.000000    Fractional   0.00
    463 z          0.600000      0.599297     0.000703    Fractional   0.12
    464 x          0.700000      0.699303     0.000697    Fractional   0.10
    464 y          0.500000      0.500000     0.000000    Fractional   0.00
    464 z          0.800000      0.799304     0.000696    Fractional   0.09
    465 x          0.700000      0.699320     0.000680    Fractional   0.10
    465 y          0.700000      0.700014     0.000014    Fractional   0.00
    465 z          0.000000      0.999302     0.999302    Fractional   0.00
    466 x          0.700000      0.699320     0.000680    Fractional   0.10
    466 y          0.700000      0.700014     0.000014    Fractional   0.00
    466 z          0.200000      0.199292     0.000708    Fractional   0.35
    467 x          0.700000      0.699309     0.000691    Fractional   0.10
    467 y          0.700000      0.700011     0.000011    Fractional   0.00
    467 z          0.400000      0.399286     0.000714    Fractional   0.18
    468 x          0.700000      0.699303     0.000697    Fractional   0.10
    468 y          0.700000      0.700007     0.000007    Fractional   0.00
    468 z          0.600000      0.599297     0.000703    Fractional   0.12
    469 x          0.700000      0.699309     0.000691    Fractional   0.10
    469 y          0.700000      0.700011     0.000011    Fractional   0.00
    469 z          0.800000      0.799308     0.000692    Fractional   0.09
    470 x          0.700000      0.699267     0.000733    Fractional   0.10
    470 y          0.900000      0.899985     0.000015    Fractional   0.00
    470 z          0.000000      0.999282     0.999282    Fractional   0.00
    471 x          0.700000      0.699267     0.000733    Fractional   0.10
    471 y          0.900000      0.899985     0.000015    Fractional   0.00
    471 z          0.200000      0.199312     0.000688    Fractional   0.34
    472 x          0.700000      0.699320     0.000680    Fractional   0.10
    472 y          0.900000      0.900005     0.000005    Fractional   0.00
    472 z          0.400000      0.399283     0.000717    Fractional   0.18
    473 x          0.700000      0.699305     0.000695    Fractional   0.10
    473 y          0.900000      0.900004     0.000004    Fractional   0.00
    473 z          0.600000      0.599297     0.000703    Fractional   0.12
    474 x          0.700000      0.699320     0.000680    Fractional   0.10
    474 y          0.900000      0.900005     0.000005    Fractional   0.00
    474 z          0.800000      0.799311     0.000689    Fractional   0.09
    475 x          0.900000      0.899403     0.000597    Fractional   0.07
    475 y          0.100000      0.099903     0.000097    Fractional   0.10
    475 z          0.000000      0.999394     0.999394    Fractional   0.00
    476 x          0.900000      0.899403     0.000597    Fractional   0.07
    476 y          0.100000      0.099903     0.000097    Fractional   0.10
    476 z          0.200000      0.199200     0.000800    Fractional   0.40
    477 x          0.900000      0.899336     0.000664    Fractional   0.07
    477 y          0.100000      0.099976     0.000024    Fractional   0.02
    477 z          0.400000      0.399248     0.000752    Fractional   0.19
    478 x          0.900000      0.899282     0.000718    Fractional   0.08
    478 y          0.100000      0.100008     0.000008    Fractional   0.01
    478 z          0.600000      0.599297     0.000703    Fractional   0.12
    479 x          0.900000      0.899336     0.000664    Fractional   0.07
    479 y          0.100000      0.099976     0.000024    Fractional   0.02
    479 z          0.800000      0.799346     0.000654    Fractional   0.08
    480 x          0.900000      0.899336     0.000664    Fractional   0.07
    480 y          0.300000      0.299951     0.000049    Fractional   0.02
    480 z          0.000000      0.999321     0.999321    Fractional   0.00
    481 x          0.900000      0.899336     0.000664    Fractional   0.07
    481 y          0.300000      0.299951     0.000049    Fractional   0.02
    481 z          0.200000      0.199273     0.000727    Fractional   0.36
    482 x          0.900000      0.899316     0.000684    Fractional   0.08
    482 y          0.300000      0.299971     0.000029    Fractional   0.01
    482 z          0.400000      0.399268     0.000732    Fractional   0.18
    483 x          0.900000      0.899302     0.000698    Fractional   0.08
    483 y          0.300000      0.299993     0.000007    Fractional   0.00
    483 z          0.600000      0.599297     0.000703    Fractional   0.12
    484 x          0.900000      0.899316     0.000684    Fractional   0.08
    484 y          0.300000      0.299971     0.000029    Fractional   0.01
    484 z          0.800000      0.799326     0.000674    Fractional   0.08
    485 x          0.900000      0.899282     0.000718    Fractional   0.08
    485 y          0.500000      0.500000     0.000000    Fractional   0.00
    485 z          0.000000      0.999289     0.999289    Fractional   0.00
    486 x          0.900000      0.899282     0.000718    Fractional   0.08
    486 y          0.500000      0.500000     0.000000    Fractional   0.00
    486 z          0.200000      0.199305     0.000695    Fractional   0.35
    487 x          0.900000      0.899302     0.000698    Fractional   0.08
    487 y          0.500000      0.500000     0.000000    Fractional   0.00
    487 z          0.400000      0.399290     0.000710    Fractional   0.18
    488 x          0.900000      0.899304     0.000696    Fractional   0.08
    488 y          0.500000      0.500000     0.000000    Fractional   0.00
    488 z          0.600000      0.599297     0.000703    Fractional   0.12
    489 x          0.900000      0.899302     0.000698    Fractional   0.08
    489 y          0.500000      0.500000     0.000000    Fractional   0.00
    489 z          0.800000      0.799304     0.000696    Fractional   0.09
    490 x          0.900000      0.899336     0.000664    Fractional   0.07
    490 y          0.700000      0.700049     0.000049    Fractional   0.01
    490 z          0.000000      0.999321     0.999321    Fractional   0.00
    491 x          0.900000      0.899336     0.000664    Fractional   0.07
    491 y          0.700000      0.700049     0.000049    Fractional   0.01
    491 z          0.200000      0.199273     0.000727    Fractional   0.36
    492 x          0.900000      0.899316     0.000684    Fractional   0.08
    492 y          0.700000      0.700029     0.000029    Fractional   0.00
    492 z          0.400000      0.399268     0.000732    Fractional   0.18
    493 x          0.900000      0.899302     0.000698    Fractional   0.08
    493 y          0.700000      0.700007     0.000007    Fractional   0.00
    493 z          0.600000      0.599297     0.000703    Fractional   0.12
    494 x          0.900000      0.899316     0.000684    Fractional   0.08
    494 y          0.700000      0.700029     0.000029    Fractional   0.00
    494 z          0.800000      0.799326     0.000674    Fractional   0.08
    495 x          0.900000      0.899403     0.000597    Fractional   0.07
    495 y          0.900000      0.900097     0.000097    Fractional   0.01
    495 z          0.000000      0.999394     0.999394    Fractional   0.00
    496 x          0.900000      0.899403     0.000597    Fractional   0.07
    496 y          0.900000      0.900097     0.000097    Fractional   0.01
    496 z          0.200000      0.199200     0.000800    Fractional   0.40
    497 x          0.900000      0.899336     0.000664    Fractional   0.07
    497 y          0.900000      0.900024     0.000024    Fractional   0.00
    497 z          0.400000      0.399248     0.000752    Fractional   0.19
    498 x          0.900000      0.899282     0.000718    Fractional   0.08
    498 y          0.900000      0.899992     0.000008    Fractional   0.00
    498 z          0.600000      0.599297     0.000703    Fractional   0.12
    499 x          0.900000      0.899336     0.000664    Fractional   0.07
    499 y          0.900000      0.900024     0.000024    Fractional   0.00
    499 z          0.800000      0.799346     0.000654    Fractional   0.08
--------------------------------------------------------------------------------


  Distance calculation :


  Cutoff for distances  =      2.000000 Angstroms

--------------------------------------------------------------------------------
  Asymmetric unit site  Full lattice sites    No.  Distance      No.  Distance
      No.   At.No.            At.No.                (Angs)             (Angs) 
--------------------------------------------------------------------------------



  Time to end of optimisation =       5.4724 seconds


  Peak dynamic memory used =      47.26 MB 


  Timing analysis for GULP :

--------------------------------------------------------------------------------
  Task / Subroutine                                          Time (Seconds)
--------------------------------------------------------------------------------
  Calculation of real space energy and derivatives                4.5463
  Calculation and manipulation of Hessian matrix                  0.0039
  Calculation of matrix inversion                                 0.7631
--------------------------------------------------------------------------------
  Total CPU time                                                  5.4724
--------------------------------------------------------------------------------


  Job Finished at 17:28.39  6th January    2019                               

