********************************************************************************
*                       GENERAL UTILITY LATTICE PROGRAM                        *
*                                 Julian Gale                                  *
*                       Curtin Institute for Computation                       *
*                           Department of Chemistry                            *
*                    Curtin University, Western Australia                      *
********************************************************************************
* Version = 5.1.1 * Last modified =  24th November 2018                        *
********************************************************************************
*  optimise     - perform optimisation run                                     *
*  conp         - constant pressure calculation                                *
*  distance     - calculate distances                                          *
*  compare      - compare initial and final structures                         *
********************************************************************************

  Job Started  at 17:28.30  6th January    2019                               

  Number of CPUs =     1


  Total number of configurations input =      1

********************************************************************************
*  Input for Configuration =   1                                               *
********************************************************************************

  Formula = Au31                                                        

  Number of irreducible atoms/shells =      31


  Total number atoms/shells =      31

  Dimensionality = 3               :  Bulk   



  Cartesian lattice vectors (Angstroms) :

        8.154000    0.000000    0.000000
        0.000000    8.154000    0.000000
        0.000000    0.000000    8.154000

  Cell parameters (Angstroms/Degrees):

  a =       8.1540    alpha =  90.0000
  b =       8.1540    beta  =  90.0000
  c =       8.1540    gamma =  90.0000

  Initial cell volume =         542.140836 Angs**3

  Temperature of configuration =  0.000     K 

  Pressure of configuration =         0.000 GPa 

  Fractional coordinates of asymmetric unit :

--------------------------------------------------------------------------------
   No.  Atomic       x           y          z         Charge      Occupancy
        Label      (Frac)      (Frac)     (Frac)        (e)         (Frac)  
--------------------------------------------------------------------------------
      1 Au    c    0.000000    0.000000    0.000000     0.00000    1.000000    
      2 Au    c    0.000000 *  0.000000 *  0.500000 *   0.00000    1.000000    
      3 Au    c    0.000000 *  0.500000 *  0.000000 *   0.00000    1.000000    
      4 Au    c    0.000000 *  0.500000 *  0.500000 *   0.00000    1.000000    
      5 Au    c    0.500000 *  0.000000 *  0.000000 *   0.00000    1.000000    
      6 Au    c    0.500000 *  0.000000 *  0.500000 *   0.00000    1.000000    
      7 Au    c    0.500000 *  0.500000 *  0.000000 *   0.00000    1.000000    
      8 Au    c    0.500000 *  0.500000 *  0.500000 *   0.00000    1.000000    
      9 Au    c    0.000000 *  0.250000 *  0.250000 *   0.00000    1.000000    
     10 Au    c    0.000000 *  0.250000 *  0.750000 *   0.00000    1.000000    
     11 Au    c    0.000000 *  0.750000 *  0.250000 *   0.00000    1.000000    
     12 Au    c    0.000000 *  0.750000 *  0.750000 *   0.00000    1.000000    
     13 Au    c    0.500000 *  0.250000 *  0.250000 *   0.00000    1.000000    
     14 Au    c    0.500000 *  0.250000 *  0.750000 *   0.00000    1.000000    
     15 Au    c    0.500000 *  0.750000 *  0.250000 *   0.00000    1.000000    
     16 Au    c    0.500000 *  0.750000 *  0.750000 *   0.00000    1.000000    
     17 Au    c    0.250000 *  0.000000 *  0.750000 *   0.00000    1.000000    
     18 Au    c    0.250000 *  0.500000 *  0.250000 *   0.00000    1.000000    
     19 Au    c    0.250000 *  0.500000 *  0.750000 *   0.00000    1.000000    
     20 Au    c    0.750000 *  0.000000 *  0.250000 *   0.00000    1.000000    
     21 Au    c    0.750000 *  0.000000 *  0.750000 *   0.00000    1.000000    
     22 Au    c    0.750000 *  0.500000 *  0.250000 *   0.00000    1.000000    
     23 Au    c    0.750000 *  0.500000 *  0.750000 *   0.00000    1.000000    
     24 Au    c    0.250000 *  0.250000 *  0.000000 *   0.00000    1.000000    
     25 Au    c    0.250000 *  0.250000 *  0.500000 *   0.00000    1.000000    
     26 Au    c    0.250000 *  0.750000 *  0.000000 *   0.00000    1.000000    
     27 Au    c    0.250000 *  0.750000 *  0.500000 *   0.00000    1.000000    
     28 Au    c    0.750000 *  0.250000 *  0.000000 *   0.00000    1.000000    
     29 Au    c    0.750000 *  0.250000 *  0.500000 *   0.00000    1.000000    
     30 Au    c    0.750000 *  0.750000 *  0.000000 *   0.00000    1.000000    
     31 Au    c    0.750000 *  0.750000 *  0.500000 *   0.00000    1.000000    
--------------------------------------------------------------------------------



  Distance calculation :


  Cutoff for distances  =      2.000000 Angstroms

--------------------------------------------------------------------------------
  Asymmetric unit site  Full lattice sites    No.  Distance      No.  Distance
      No.   At.No.            At.No.                (Angs)             (Angs) 
--------------------------------------------------------------------------------



********************************************************************************
*  General input information                                                   *
********************************************************************************

  Species output for all configurations : 

--------------------------------------------------------------------------------
  Species    Type    Atomic    Atomic    Charge       Radii (Angs)     Library
                     Number     Mass       (e)     Cova   Ionic  VDW   Symbol
--------------------------------------------------------------------------------
    Au       Core       79     196.97   0.000000   1.500  0.000  1.850          
--------------------------------------------------------------------------------


  Lattice summation method               =    Ewald          (3-D)
                                         =    Parry          (2-D)
                                         =    Saunders et al (1-D)
  Accuracy factor for lattice sums       =   12.000


  Time limit = Infinity

  Maximum range for interatomic potentials =    100000.000000 Angstroms

  General interatomic potentials :

--------------------------------------------------------------------------------
Atom  Types   Potential      Parameter       Value         Units   Cutoffs(Ang)
  1     2                                                            Min /  Max 
--------------------------------------------------------------------------------
Au   c Au   c Lennard       Lennard-Jones A  214108.20    eV*Ang^m  0.000 40.000
                            Lennard-Jones B  625.48200    eV*Ang^n  
                            Exponent m        12          None
                            Exponent n         6          None
--------------------------------------------------------------------------------

********************************************************************************
*  Output for configuration   1                                                *
********************************************************************************


  Components of energy : 

--------------------------------------------------------------------------------
  Interatomic potentials     =        -117.96923257 eV    
  Monopole - monopole (real) =           0.00000000 eV    
  Monopole - monopole (recip)=           0.00000000 eV    
  Monopole - monopole (total)=           0.00000000 eV    
--------------------------------------------------------------------------------
  Total lattice energy       =        -117.96923257 eV    
--------------------------------------------------------------------------------
  Total lattice energy       =          -11382.2276 kJ/(mole unit cells)
--------------------------------------------------------------------------------


  Number of variables =       96

  Maximum number of calculations  =          1000
  Maximum Hessian update interval =            10
  Maximum step size               =   1.000000000
  Maximum parameter tolerance     =   0.000010000
  Maximum function  tolerance     =   0.000010000
  Maximum gradient  tolerance     =   0.001000000
  Maximum gradient  component     =   0.010000000

  Symmetry not applied to optimisation

  Cell parameters to be optimised using strains

  Newton-Raphson optimiser to be used

  BFGS hessian update to be used

  Lower half triangular hessian to be used

  Start of bulk optimisation :

  Cycle:      0 Energy:      -117.969233  Gnorm:      0.126317  CPU:    0.048
  ** Hessian calculated **
  Cycle:      1 Energy:      -118.018592  Gnorm:      0.005277  CPU:    0.104
  Cycle:      2 Energy:      -118.018638  Gnorm:      0.000128  CPU:    0.150


  **** Optimisation achieved ****


  Final energy =    -118.01863789 eV
  Final Gnorm  =       0.00000223

  Components of energy : 

--------------------------------------------------------------------------------
  Interatomic potentials     =        -118.01863789 eV    
  Monopole - monopole (real) =           0.00000000 eV    
  Monopole - monopole (recip)=           0.00000000 eV    
  Monopole - monopole (total)=           0.00000000 eV    
--------------------------------------------------------------------------------
  Total lattice energy       =        -118.01863789 eV    
--------------------------------------------------------------------------------
  Total lattice energy       =          -11386.9945 kJ/(mole unit cells)
--------------------------------------------------------------------------------

  Final fractional coordinates of atoms :

--------------------------------------------------------------------------------
   No.  Atomic        x           y          z          Radius
        Label       (Frac)      (Frac)     (Frac)       (Angs) 
--------------------------------------------------------------------------------
     1  Au    c     0.000000    0.000000    0.000000    0.000000
     2  Au    c     1.000000    0.000000    0.496751    0.000000
     3  Au    c     0.998588    0.500000    0.998588    0.000000
     4  Au    c     0.998588    0.500000    0.498163    0.000000
     5  Au    c     0.496751    1.000000    0.000000    0.000000
     6  Au    c     0.496751    0.000000    0.496751    0.000000
     7  Au    c     0.498163    0.500000    0.998588    0.000000
     8  Au    c     0.498163    0.500000    0.498163    0.000000
     9  Au    c     1.000000    0.248375    0.248375    0.000000
    10  Au    c     0.998588    0.249787    0.748375    0.000000
    11  Au    c     1.000000    0.751625    0.248375    0.000000
    12  Au    c     0.998588    0.750213    0.748375    0.000000
    13  Au    c     0.496751    0.248375    0.248375    0.000000
    14  Au    c     0.498163    0.249787    0.748375    0.000000
    15  Au    c     0.496751    0.751625    0.248375    0.000000
    16  Au    c     0.498163    0.750213    0.748375    0.000000
    17  Au    c     0.248375    0.000000    0.748375    0.000000
    18  Au    c     0.248375    0.500000    0.248375    0.000000
    19  Au    c     0.248375    0.500000    0.748375    0.000000
    20  Au    c     0.748375    1.000000    0.248375    0.000000
    21  Au    c     0.748375    0.000000    0.748375    0.000000
    22  Au    c     0.748375    0.500000    0.248375    0.000000
    23  Au    c     0.748375    0.500000    0.748375    0.000000
    24  Au    c     0.248375    0.248375    0.000000    0.000000
    25  Au    c     0.248375    0.248375    0.496751    0.000000
    26  Au    c     0.248375    0.751625    0.000000    0.000000
    27  Au    c     0.248375    0.751625    0.496751    0.000000
    28  Au    c     0.748375    0.249787    0.998588    0.000000
    29  Au    c     0.748375    0.249787    0.498163    0.000000
    30  Au    c     0.748375    0.750213    0.998588    0.000000
    31  Au    c     0.748375    0.750213    0.498163    0.000000
--------------------------------------------------------------------------------

  Final Cartesian lattice vectors (Angstroms) :

        8.152260    0.000000    0.000000
        0.000000    8.152260    0.000000
        0.000000    0.000000    8.152260


  Final cell parameters and derivatives :

--------------------------------------------------------------------------------
       a            8.152260 Angstrom     dE/de1(xx)     0.000025 eV/strain
       b            8.152260 Angstrom     dE/de2(yy)     0.000025 eV/strain
       c            8.152260 Angstrom     dE/de3(zz)     0.000025 eV/strain
       alpha       90.000000 Degrees      dE/de4(yz)     0.000000 eV/strain
       beta        90.000000 Degrees      dE/de5(xz)     0.000000 eV/strain
       gamma       90.000000 Degrees      dE/de6(xy)    -0.000000 eV/strain
--------------------------------------------------------------------------------

  Primitive cell volume =           541.793922 Angs**3

  Density of cell =     18.714734 g/cm**3

  Non-primitive cell volume =           541.793922 Angs**3


  Final internal derivatives :

--------------------------------------------------------------------------------
   No.  Atomic          a             b             c           Radius
        Label          (eV)          (eV)          (eV)        (eV/Angs)
--------------------------------------------------------------------------------
      1 Au    c       0.000000      0.000000      0.000000      0.000000
      2 Au    c       0.000044      0.000000     -0.000044      0.000000
      3 Au    c      -0.000004      0.000000     -0.000004      0.000000
      4 Au    c      -0.000004      0.000000      0.000004      0.000000
      5 Au    c      -0.000044      0.000000      0.000044      0.000000
      6 Au    c      -0.000044      0.000000     -0.000044      0.000000
      7 Au    c       0.000004      0.000000     -0.000004      0.000000
      8 Au    c       0.000004      0.000000      0.000004      0.000000
      9 Au    c       0.000044     -0.000044      0.000000      0.000000
     10 Au    c      -0.000004      0.000004     -0.000000      0.000000
     11 Au    c       0.000044      0.000044      0.000000      0.000000
     12 Au    c      -0.000004     -0.000004     -0.000000      0.000000
     13 Au    c      -0.000044     -0.000044     -0.000000      0.000000
     14 Au    c       0.000004      0.000004      0.000000      0.000000
     15 Au    c      -0.000044      0.000044      0.000000      0.000000
     16 Au    c       0.000004     -0.000004     -0.000000      0.000000
     17 Au    c       0.000000      0.000000      0.000000      0.000000
     18 Au    c      -0.000000      0.000000      0.000000      0.000000
     19 Au    c       0.000000      0.000000      0.000000      0.000000
     20 Au    c      -0.000000      0.000000     -0.000000      0.000000
     21 Au    c       0.000000      0.000000      0.000000      0.000000
     22 Au    c       0.000000      0.000000     -0.000000      0.000000
     23 Au    c       0.000000      0.000000      0.000000      0.000000
     24 Au    c       0.000000     -0.000044      0.000044      0.000000
     25 Au    c       0.000000     -0.000044     -0.000044      0.000000
     26 Au    c      -0.000000      0.000044      0.000044      0.000000
     27 Au    c       0.000000      0.000044     -0.000044      0.000000
     28 Au    c      -0.000000      0.000004     -0.000004      0.000000
     29 Au    c      -0.000000      0.000004      0.000004      0.000000
     30 Au    c       0.000000     -0.000004     -0.000004      0.000000
     31 Au    c       0.000000     -0.000004      0.000004      0.000000
--------------------------------------------------------------------------------
  Maximum abs         0.000044      0.000044      0.000044      0.000000
--------------------------------------------------------------------------------

  Comparison of initial and final structures : 

--------------------------------------------------------------------------------
  Parameter   Initial value   Final value   Difference    Units      Percent
--------------------------------------------------------------------------------
    Volume       542.140836    541.793922    -0.346914    Angs**3     -0.06
    a              8.154000      8.152260    -0.001740    Angstroms   -0.02
    b              8.154000      8.152260    -0.001740    Angstroms   -0.02
    c              8.154000      8.152260    -0.001740    Angstroms   -0.02
    alpha         90.000000     90.000000     0.000000    Degrees      0.00
    beta          90.000000     90.000000     0.000000    Degrees      0.00
    gamma         90.000000     90.000000     0.000000    Degrees      0.00
      1 x          0.000000      0.000000     0.000000    Fractional   0.00
      1 y          0.000000      0.000000     0.000000    Fractional   0.00
      1 z          0.000000      0.000000     0.000000    Fractional   0.00
      2 x          0.000000      1.000000     1.000000    Fractional   0.00
      2 y          0.000000      0.000000     0.000000    Fractional   0.00
      2 z          0.500000      0.496751     0.003249    Fractional   0.65
      3 x          0.000000      0.998588     0.998588    Fractional   0.00
      3 y          0.500000      0.500000     0.000000    Fractional   0.00
      3 z          0.000000      0.998588     0.998588    Fractional   0.00
      4 x          0.000000      0.998588     0.998588    Fractional   0.00
      4 y          0.500000      0.500000     0.000000    Fractional   0.00
      4 z          0.500000      0.498163     0.001837    Fractional   0.37
      5 x          0.500000      0.496751     0.003249    Fractional   0.65
      5 y          0.000000      1.000000     1.000000    Fractional   0.00
      5 z          0.000000      0.000000     0.000000    Fractional   0.00
      6 x          0.500000      0.496751     0.003249    Fractional   0.65
      6 y          0.000000      0.000000     0.000000    Fractional   0.00
      6 z          0.500000      0.496751     0.003249    Fractional   0.65
      7 x          0.500000      0.498163     0.001837    Fractional   0.37
      7 y          0.500000      0.500000     0.000000    Fractional   0.00
      7 z          0.000000      0.998588     0.998588    Fractional   0.00
      8 x          0.500000      0.498163     0.001837    Fractional   0.37
      8 y          0.500000      0.500000     0.000000    Fractional   0.00
      8 z          0.500000      0.498163     0.001837    Fractional   0.37
      9 x          0.000000      1.000000     1.000000    Fractional   0.00
      9 y          0.250000      0.248375     0.001625    Fractional   0.65
      9 z          0.250000      0.248375     0.001625    Fractional   0.65
     10 x          0.000000      0.998588     0.998588    Fractional   0.00
     10 y          0.250000      0.249787     0.000213    Fractional   0.09
     10 z          0.750000      0.748375     0.001625    Fractional   0.22
     11 x          0.000000      1.000000     1.000000    Fractional   0.00
     11 y          0.750000      0.751625     0.001625    Fractional   0.22
     11 z          0.250000      0.248375     0.001625    Fractional   0.65
     12 x          0.000000      0.998588     0.998588    Fractional   0.00
     12 y          0.750000      0.750213     0.000213    Fractional   0.03
     12 z          0.750000      0.748375     0.001625    Fractional   0.22
     13 x          0.500000      0.496751     0.003249    Fractional   0.65
     13 y          0.250000      0.248375     0.001625    Fractional   0.65
     13 z          0.250000      0.248375     0.001625    Fractional   0.65
     14 x          0.500000      0.498163     0.001837    Fractional   0.37
     14 y          0.250000      0.249787     0.000213    Fractional   0.09
     14 z          0.750000      0.748375     0.001625    Fractional   0.22
     15 x          0.500000      0.496751     0.003249    Fractional   0.65
     15 y          0.750000      0.751625     0.001625    Fractional   0.22
     15 z          0.250000      0.248375     0.001625    Fractional   0.65
     16 x          0.500000      0.498163     0.001837    Fractional   0.37
     16 y          0.750000      0.750213     0.000213    Fractional   0.03
     16 z          0.750000      0.748375     0.001625    Fractional   0.22
     17 x          0.250000      0.248375     0.001625    Fractional   0.65
     17 y          0.000000      0.000000     0.000000    Fractional   0.00
     17 z          0.750000      0.748375     0.001625    Fractional   0.22
     18 x          0.250000      0.248375     0.001625    Fractional   0.65
     18 y          0.500000      0.500000     0.000000    Fractional   0.00
     18 z          0.250000      0.248375     0.001625    Fractional   0.65
     19 x          0.250000      0.248375     0.001625    Fractional   0.65
     19 y          0.500000      0.500000     0.000000    Fractional   0.00
     19 z          0.750000      0.748375     0.001625    Fractional   0.22
     20 x          0.750000      0.748375     0.001625    Fractional   0.22
     20 y          0.000000      1.000000     1.000000    Fractional   0.00
     20 z          0.250000      0.248375     0.001625    Fractional   0.65
     21 x          0.750000      0.748375     0.001625    Fractional   0.22
     21 y          0.000000      0.000000     0.000000    Fractional   0.00
     21 z          0.750000      0.748375     0.001625    Fractional   0.22
     22 x          0.750000      0.748375     0.001625    Fractional   0.22
     22 y          0.500000      0.500000     0.000000    Fractional   0.00
     22 z          0.250000      0.248375     0.001625    Fractional   0.65
     23 x          0.750000      0.748375     0.001625    Fractional   0.22
     23 y          0.500000      0.500000     0.000000    Fractional   0.00
     23 z          0.750000      0.748375     0.001625    Fractional   0.22
     24 x          0.250000      0.248375     0.001625    Fractional   0.65
     24 y          0.250000      0.248375     0.001625    Fractional   0.65
     24 z          0.000000      0.000000     0.000000    Fractional   0.00
     25 x          0.250000      0.248375     0.001625    Fractional   0.65
     25 y          0.250000      0.248375     0.001625    Fractional   0.65
     25 z          0.500000      0.496751     0.003249    Fractional   0.65
     26 x          0.250000      0.248375     0.001625    Fractional   0.65
     26 y          0.750000      0.751625     0.001625    Fractional   0.22
     26 z          0.000000      0.000000     0.000000    Fractional   0.00
     27 x          0.250000      0.248375     0.001625    Fractional   0.65
     27 y          0.750000      0.751625     0.001625    Fractional   0.22
     27 z          0.500000      0.496751     0.003249    Fractional   0.65
     28 x          0.750000      0.748375     0.001625    Fractional   0.22
     28 y          0.250000      0.249787     0.000213    Fractional   0.09
     28 z          0.000000      0.998588     0.998588    Fractional   0.00
     29 x          0.750000      0.748375     0.001625    Fractional   0.22
     29 y          0.250000      0.249787     0.000213    Fractional   0.09
     29 z          0.500000      0.498163     0.001837    Fractional   0.37
     30 x          0.750000      0.748375     0.001625    Fractional   0.22
     30 y          0.750000      0.750213     0.000213    Fractional   0.03
     30 z          0.000000      0.998588     0.998588    Fractional   0.00
     31 x          0.750000      0.748375     0.001625    Fractional   0.22
     31 y          0.750000      0.750213     0.000213    Fractional   0.03
     31 z          0.500000      0.498163     0.001837    Fractional   0.37
--------------------------------------------------------------------------------


  Distance calculation :


  Cutoff for distances  =      2.000000 Angstroms

--------------------------------------------------------------------------------
  Asymmetric unit site  Full lattice sites    No.  Distance      No.  Distance
      No.   At.No.            At.No.                (Angs)             (Angs) 
--------------------------------------------------------------------------------



  Time to end of optimisation =       0.1962 seconds


  Peak dynamic memory used =       0.80 MB 


  Timing analysis for GULP :

--------------------------------------------------------------------------------
  Task / Subroutine                                          Time (Seconds)
--------------------------------------------------------------------------------
  Calculation of real space energy and derivatives                0.1935
  Calculation of matrix inversion                                 0.0002
--------------------------------------------------------------------------------
  Total CPU time                                                  0.1962
--------------------------------------------------------------------------------


  Job Finished at 17:28.30  6th January    2019                               

