********************************************************************************
*                       GENERAL UTILITY LATTICE PROGRAM                        *
*                                 Julian Gale                                  *
*                       Curtin Institute for Computation                       *
*                           Department of Chemistry                            *
*                    Curtin University, Western Australia                      *
********************************************************************************
* Version = 5.1.1 * Last modified =  24th November 2018                        *
********************************************************************************
*  single       - perform a single point run                                   *
*  conp         - constant pressure calculation                                *
*  distance     - calculate distances                                          *
********************************************************************************

  Job Started  at 20:57.01  6th January    2019                               

  Number of CPUs =     1


  Total number of configurations input =      1

********************************************************************************
*  Input for Configuration =   1                                               *
********************************************************************************

  Formula = Au499                                                       

  Number of irreducible atoms/shells =     499


  Total number atoms/shells =     499

  Dimensionality = 3               :  Bulk   



  Cartesian lattice vectors (Angstroms) :

       20.385000    0.000000    0.000000
        0.000000   20.385000    0.000000
        0.000000    0.000000   20.385000

  Cell parameters (Angstroms/Degrees):

  a =      20.3850    alpha =  90.0000
  b =      20.3850    beta  =  90.0000
  c =      20.3850    gamma =  90.0000

  Initial cell volume =        8470.950567 Angs**3

  Temperature of configuration =  0.000     K 

  Pressure of configuration =         0.000 GPa 

  Fractional coordinates of asymmetric unit :

--------------------------------------------------------------------------------
   No.  Atomic       x           y          z         Charge      Occupancy
        Label      (Frac)      (Frac)     (Frac)        (e)         (Frac)  
--------------------------------------------------------------------------------
      1 Au    c    0.000000    0.000000    0.000000     0.00000    1.000000    
      2 Au    c    0.000000    0.000000    0.200000     0.00000    1.000000    
      3 Au    c    0.000000    0.000000    0.400000     0.00000    1.000000    
      4 Au    c    0.000000    0.000000    0.600000     0.00000    1.000000    
      5 Au    c    0.000000    0.000000    0.800000     0.00000    1.000000    
      6 Au    c    0.000000    0.200000    0.000000     0.00000    1.000000    
      7 Au    c    0.000000    0.200000    0.200000     0.00000    1.000000    
      8 Au    c    0.000000    0.200000    0.400000     0.00000    1.000000    
      9 Au    c    0.000000    0.200000    0.600000     0.00000    1.000000    
     10 Au    c    0.000000    0.200000    0.800000     0.00000    1.000000    
     11 Au    c    0.000000    0.400000    0.000000     0.00000    1.000000    
     12 Au    c    0.000000    0.400000    0.200000     0.00000    1.000000    
     13 Au    c    0.000000    0.400000    0.400000     0.00000    1.000000    
     14 Au    c    0.000000    0.400000    0.600000     0.00000    1.000000    
     15 Au    c    0.000000    0.400000    0.800000     0.00000    1.000000    
     16 Au    c    0.000000    0.600000    0.000000     0.00000    1.000000    
     17 Au    c    0.000000    0.600000    0.200000     0.00000    1.000000    
     18 Au    c    0.000000    0.600000    0.400000     0.00000    1.000000    
     19 Au    c    0.000000    0.600000    0.600000     0.00000    1.000000    
     20 Au    c    0.000000    0.600000    0.800000     0.00000    1.000000    
     21 Au    c    0.000000    0.800000    0.000000     0.00000    1.000000    
     22 Au    c    0.000000    0.800000    0.200000     0.00000    1.000000    
     23 Au    c    0.000000    0.800000    0.400000     0.00000    1.000000    
     24 Au    c    0.000000    0.800000    0.600000     0.00000    1.000000    
     25 Au    c    0.000000    0.800000    0.800000     0.00000    1.000000    
     26 Au    c    0.200000    0.000000    0.000000     0.00000    1.000000    
     27 Au    c    0.200000    0.000000    0.200000     0.00000    1.000000    
     28 Au    c    0.200000    0.000000    0.400000     0.00000    1.000000    
     29 Au    c    0.200000    0.000000    0.600000     0.00000    1.000000    
     30 Au    c    0.200000    0.000000    0.800000     0.00000    1.000000    
     31 Au    c    0.200000    0.200000    0.000000     0.00000    1.000000    
     32 Au    c    0.200000    0.200000    0.200000     0.00000    1.000000    
     33 Au    c    0.200000    0.200000    0.400000     0.00000    1.000000    
     34 Au    c    0.200000    0.200000    0.600000     0.00000    1.000000    
     35 Au    c    0.200000    0.200000    0.800000     0.00000    1.000000    
     36 Au    c    0.200000    0.400000    0.000000     0.00000    1.000000    
     37 Au    c    0.200000    0.400000    0.200000     0.00000    1.000000    
     38 Au    c    0.200000    0.400000    0.400000     0.00000    1.000000    
     39 Au    c    0.200000    0.400000    0.600000     0.00000    1.000000    
     40 Au    c    0.200000    0.400000    0.800000     0.00000    1.000000    
     41 Au    c    0.200000    0.600000    0.000000     0.00000    1.000000    
     42 Au    c    0.200000    0.600000    0.200000     0.00000    1.000000    
     43 Au    c    0.200000    0.600000    0.400000     0.00000    1.000000    
     44 Au    c    0.200000    0.600000    0.600000     0.00000    1.000000    
     45 Au    c    0.200000    0.600000    0.800000     0.00000    1.000000    
     46 Au    c    0.200000    0.800000    0.000000     0.00000    1.000000    
     47 Au    c    0.200000    0.800000    0.200000     0.00000    1.000000    
     48 Au    c    0.200000    0.800000    0.400000     0.00000    1.000000    
     49 Au    c    0.200000    0.800000    0.600000     0.00000    1.000000    
     50 Au    c    0.200000    0.800000    0.800000     0.00000    1.000000    
     51 Au    c    0.400000    0.000000    0.000000     0.00000    1.000000    
     52 Au    c    0.400000    0.000000    0.200000     0.00000    1.000000    
     53 Au    c    0.400000    0.000000    0.400000     0.00000    1.000000    
     54 Au    c    0.400000    0.000000    0.600000     0.00000    1.000000    
     55 Au    c    0.400000    0.000000    0.800000     0.00000    1.000000    
     56 Au    c    0.400000    0.200000    0.000000     0.00000    1.000000    
     57 Au    c    0.400000    0.200000    0.200000     0.00000    1.000000    
     58 Au    c    0.400000    0.200000    0.400000     0.00000    1.000000    
     59 Au    c    0.400000    0.200000    0.600000     0.00000    1.000000    
     60 Au    c    0.400000    0.200000    0.800000     0.00000    1.000000    
     61 Au    c    0.400000    0.400000    0.000000     0.00000    1.000000    
     62 Au    c    0.400000    0.400000    0.200000     0.00000    1.000000    
     63 Au    c    0.400000    0.400000    0.400000     0.00000    1.000000    
     64 Au    c    0.400000    0.400000    0.600000     0.00000    1.000000    
     65 Au    c    0.400000    0.400000    0.800000     0.00000    1.000000    
     66 Au    c    0.400000    0.600000    0.000000     0.00000    1.000000    
     67 Au    c    0.400000    0.600000    0.200000     0.00000    1.000000    
     68 Au    c    0.400000    0.600000    0.400000     0.00000    1.000000    
     69 Au    c    0.400000    0.600000    0.600000     0.00000    1.000000    
     70 Au    c    0.400000    0.600000    0.800000     0.00000    1.000000    
     71 Au    c    0.400000    0.800000    0.000000     0.00000    1.000000    
     72 Au    c    0.400000    0.800000    0.200000     0.00000    1.000000    
     73 Au    c    0.400000    0.800000    0.400000     0.00000    1.000000    
     74 Au    c    0.400000    0.800000    0.600000     0.00000    1.000000    
     75 Au    c    0.400000    0.800000    0.800000     0.00000    1.000000    
     76 Au    c    0.600000    0.000000    0.000000     0.00000    1.000000    
     77 Au    c    0.600000    0.000000    0.200000     0.00000    1.000000    
     78 Au    c    0.600000    0.000000    0.400000     0.00000    1.000000    
     79 Au    c    0.600000    0.000000    0.600000     0.00000    1.000000    
     80 Au    c    0.600000    0.000000    0.800000     0.00000    1.000000    
     81 Au    c    0.600000    0.200000    0.000000     0.00000    1.000000    
     82 Au    c    0.600000    0.200000    0.200000     0.00000    1.000000    
     83 Au    c    0.600000    0.200000    0.400000     0.00000    1.000000    
     84 Au    c    0.600000    0.200000    0.600000     0.00000    1.000000    
     85 Au    c    0.600000    0.200000    0.800000     0.00000    1.000000    
     86 Au    c    0.600000    0.400000    0.000000     0.00000    1.000000    
     87 Au    c    0.600000    0.400000    0.200000     0.00000    1.000000    
     88 Au    c    0.600000    0.400000    0.400000     0.00000    1.000000    
     89 Au    c    0.600000    0.400000    0.600000     0.00000    1.000000    
     90 Au    c    0.600000    0.400000    0.800000     0.00000    1.000000    
     91 Au    c    0.600000    0.600000    0.000000     0.00000    1.000000    
     92 Au    c    0.600000    0.600000    0.200000     0.00000    1.000000    
     93 Au    c    0.600000    0.600000    0.400000     0.00000    1.000000    
     94 Au    c    0.600000    0.600000    0.600000     0.00000    1.000000    
     95 Au    c    0.600000    0.600000    0.800000     0.00000    1.000000    
     96 Au    c    0.600000    0.800000    0.000000     0.00000    1.000000    
     97 Au    c    0.600000    0.800000    0.200000     0.00000    1.000000    
     98 Au    c    0.600000    0.800000    0.400000     0.00000    1.000000    
     99 Au    c    0.600000    0.800000    0.600000     0.00000    1.000000    
    100 Au    c    0.600000    0.800000    0.800000     0.00000    1.000000    
    101 Au    c    0.800000    0.000000    0.000000     0.00000    1.000000    
    102 Au    c    0.800000    0.000000    0.200000     0.00000    1.000000    
    103 Au    c    0.800000    0.000000    0.400000     0.00000    1.000000    
    104 Au    c    0.800000    0.000000    0.600000     0.00000    1.000000    
    105 Au    c    0.800000    0.000000    0.800000     0.00000    1.000000    
    106 Au    c    0.800000    0.200000    0.000000     0.00000    1.000000    
    107 Au    c    0.800000    0.200000    0.200000     0.00000    1.000000    
    108 Au    c    0.800000    0.200000    0.400000     0.00000    1.000000    
    109 Au    c    0.800000    0.200000    0.600000     0.00000    1.000000    
    110 Au    c    0.800000    0.200000    0.800000     0.00000    1.000000    
    111 Au    c    0.800000    0.400000    0.000000     0.00000    1.000000    
    112 Au    c    0.800000    0.400000    0.200000     0.00000    1.000000    
    113 Au    c    0.800000    0.400000    0.400000     0.00000    1.000000    
    114 Au    c    0.800000    0.400000    0.600000     0.00000    1.000000    
    115 Au    c    0.800000    0.400000    0.800000     0.00000    1.000000    
    116 Au    c    0.800000    0.600000    0.000000     0.00000    1.000000    
    117 Au    c    0.800000    0.600000    0.200000     0.00000    1.000000    
    118 Au    c    0.800000    0.600000    0.400000     0.00000    1.000000    
    119 Au    c    0.800000    0.600000    0.600000     0.00000    1.000000    
    120 Au    c    0.800000    0.600000    0.800000     0.00000    1.000000    
    121 Au    c    0.800000    0.800000    0.000000     0.00000    1.000000    
    122 Au    c    0.800000    0.800000    0.200000     0.00000    1.000000    
    123 Au    c    0.800000    0.800000    0.400000     0.00000    1.000000    
    124 Au    c    0.800000    0.800000    0.600000     0.00000    1.000000    
    125 Au    c    0.800000    0.800000    0.800000     0.00000    1.000000    
    126 Au    c    0.000000    0.100000    0.100000     0.00000    1.000000    
    127 Au    c    0.000000    0.100000    0.300000     0.00000    1.000000    
    128 Au    c    0.000000    0.100000    0.500000     0.00000    1.000000    
    129 Au    c    0.000000    0.100000    0.700000     0.00000    1.000000    
    130 Au    c    0.000000    0.100000    0.900000     0.00000    1.000000    
    131 Au    c    0.000000    0.300000    0.100000     0.00000    1.000000    
    132 Au    c    0.000000    0.300000    0.300000     0.00000    1.000000    
    133 Au    c    0.000000    0.300000    0.500000     0.00000    1.000000    
    134 Au    c    0.000000    0.300000    0.700000     0.00000    1.000000    
    135 Au    c    0.000000    0.300000    0.900000     0.00000    1.000000    
    136 Au    c    0.000000    0.500000    0.100000     0.00000    1.000000    
    137 Au    c    0.000000    0.500000    0.300000     0.00000    1.000000    
    138 Au    c    0.000000    0.500000    0.500000     0.00000    1.000000    
    139 Au    c    0.000000    0.500000    0.700000     0.00000    1.000000    
    140 Au    c    0.000000    0.500000    0.900000     0.00000    1.000000    
    141 Au    c    0.000000    0.700000    0.100000     0.00000    1.000000    
    142 Au    c    0.000000    0.700000    0.300000     0.00000    1.000000    
    143 Au    c    0.000000    0.700000    0.500000     0.00000    1.000000    
    144 Au    c    0.000000    0.700000    0.700000     0.00000    1.000000    
    145 Au    c    0.000000    0.700000    0.900000     0.00000    1.000000    
    146 Au    c    0.000000    0.900000    0.100000     0.00000    1.000000    
    147 Au    c    0.000000    0.900000    0.300000     0.00000    1.000000    
    148 Au    c    0.000000    0.900000    0.500000     0.00000    1.000000    
    149 Au    c    0.000000    0.900000    0.700000     0.00000    1.000000    
    150 Au    c    0.000000    0.900000    0.900000     0.00000    1.000000    
    151 Au    c    0.200000    0.100000    0.100000     0.00000    1.000000    
    152 Au    c    0.200000    0.100000    0.300000     0.00000    1.000000    
    153 Au    c    0.200000    0.100000    0.500000     0.00000    1.000000    
    154 Au    c    0.200000    0.100000    0.700000     0.00000    1.000000    
    155 Au    c    0.200000    0.100000    0.900000     0.00000    1.000000    
    156 Au    c    0.200000    0.300000    0.100000     0.00000    1.000000    
    157 Au    c    0.200000    0.300000    0.300000     0.00000    1.000000    
    158 Au    c    0.200000    0.300000    0.500000     0.00000    1.000000    
    159 Au    c    0.200000    0.300000    0.700000     0.00000    1.000000    
    160 Au    c    0.200000    0.300000    0.900000     0.00000    1.000000    
    161 Au    c    0.200000    0.500000    0.100000     0.00000    1.000000    
    162 Au    c    0.200000    0.500000    0.300000     0.00000    1.000000    
    163 Au    c    0.200000    0.500000    0.500000     0.00000    1.000000    
    164 Au    c    0.200000    0.500000    0.700000     0.00000    1.000000    
    165 Au    c    0.200000    0.500000    0.900000     0.00000    1.000000    
    166 Au    c    0.200000    0.700000    0.100000     0.00000    1.000000    
    167 Au    c    0.200000    0.700000    0.300000     0.00000    1.000000    
    168 Au    c    0.200000    0.700000    0.500000     0.00000    1.000000    
    169 Au    c    0.200000    0.700000    0.700000     0.00000    1.000000    
    170 Au    c    0.200000    0.700000    0.900000     0.00000    1.000000    
    171 Au    c    0.200000    0.900000    0.100000     0.00000    1.000000    
    172 Au    c    0.200000    0.900000    0.300000     0.00000    1.000000    
    173 Au    c    0.200000    0.900000    0.500000     0.00000    1.000000    
    174 Au    c    0.200000    0.900000    0.700000     0.00000    1.000000    
    175 Au    c    0.200000    0.900000    0.900000     0.00000    1.000000    
    176 Au    c    0.400000    0.100000    0.100000     0.00000    1.000000    
    177 Au    c    0.400000    0.100000    0.300000     0.00000    1.000000    
    178 Au    c    0.400000    0.100000    0.500000     0.00000    1.000000    
    179 Au    c    0.400000    0.100000    0.700000     0.00000    1.000000    
    180 Au    c    0.400000    0.100000    0.900000     0.00000    1.000000    
    181 Au    c    0.400000    0.300000    0.100000     0.00000    1.000000    
    182 Au    c    0.400000    0.300000    0.300000     0.00000    1.000000    
    183 Au    c    0.400000    0.300000    0.500000     0.00000    1.000000    
    184 Au    c    0.400000    0.300000    0.700000     0.00000    1.000000    
    185 Au    c    0.400000    0.300000    0.900000     0.00000    1.000000    
    186 Au    c    0.400000    0.500000    0.100000     0.00000    1.000000    
    187 Au    c    0.400000    0.500000    0.300000     0.00000    1.000000    
    188 Au    c    0.400000    0.500000    0.500000     0.00000    1.000000    
    189 Au    c    0.400000    0.500000    0.700000     0.00000    1.000000    
    190 Au    c    0.400000    0.500000    0.900000     0.00000    1.000000    
    191 Au    c    0.400000    0.700000    0.100000     0.00000    1.000000    
    192 Au    c    0.400000    0.700000    0.300000     0.00000    1.000000    
    193 Au    c    0.400000    0.700000    0.500000     0.00000    1.000000    
    194 Au    c    0.400000    0.700000    0.700000     0.00000    1.000000    
    195 Au    c    0.400000    0.700000    0.900000     0.00000    1.000000    
    196 Au    c    0.400000    0.900000    0.100000     0.00000    1.000000    
    197 Au    c    0.400000    0.900000    0.300000     0.00000    1.000000    
    198 Au    c    0.400000    0.900000    0.500000     0.00000    1.000000    
    199 Au    c    0.400000    0.900000    0.700000     0.00000    1.000000    
    200 Au    c    0.400000    0.900000    0.900000     0.00000    1.000000    
    201 Au    c    0.600000    0.100000    0.100000     0.00000    1.000000    
    202 Au    c    0.600000    0.100000    0.300000     0.00000    1.000000    
    203 Au    c    0.600000    0.100000    0.500000     0.00000    1.000000    
    204 Au    c    0.600000    0.100000    0.700000     0.00000    1.000000    
    205 Au    c    0.600000    0.100000    0.900000     0.00000    1.000000    
    206 Au    c    0.600000    0.300000    0.100000     0.00000    1.000000    
    207 Au    c    0.600000    0.300000    0.300000     0.00000    1.000000    
    208 Au    c    0.600000    0.300000    0.500000     0.00000    1.000000    
    209 Au    c    0.600000    0.300000    0.700000     0.00000    1.000000    
    210 Au    c    0.600000    0.300000    0.900000     0.00000    1.000000    
    211 Au    c    0.600000    0.500000    0.100000     0.00000    1.000000    
    212 Au    c    0.600000    0.500000    0.300000     0.00000    1.000000    
    213 Au    c    0.600000    0.500000    0.500000     0.00000    1.000000    
    214 Au    c    0.600000    0.500000    0.700000     0.00000    1.000000    
    215 Au    c    0.600000    0.500000    0.900000     0.00000    1.000000    
    216 Au    c    0.600000    0.700000    0.100000     0.00000    1.000000    
    217 Au    c    0.600000    0.700000    0.300000     0.00000    1.000000    
    218 Au    c    0.600000    0.700000    0.500000     0.00000    1.000000    
    219 Au    c    0.600000    0.700000    0.700000     0.00000    1.000000    
    220 Au    c    0.600000    0.700000    0.900000     0.00000    1.000000    
    221 Au    c    0.600000    0.900000    0.100000     0.00000    1.000000    
    222 Au    c    0.600000    0.900000    0.300000     0.00000    1.000000    
    223 Au    c    0.600000    0.900000    0.500000     0.00000    1.000000    
    224 Au    c    0.600000    0.900000    0.700000     0.00000    1.000000    
    225 Au    c    0.600000    0.900000    0.900000     0.00000    1.000000    
    226 Au    c    0.800000    0.100000    0.100000     0.00000    1.000000    
    227 Au    c    0.800000    0.100000    0.300000     0.00000    1.000000    
    228 Au    c    0.800000    0.100000    0.500000     0.00000    1.000000    
    229 Au    c    0.800000    0.100000    0.700000     0.00000    1.000000    
    230 Au    c    0.800000    0.100000    0.900000     0.00000    1.000000    
    231 Au    c    0.800000    0.300000    0.100000     0.00000    1.000000    
    232 Au    c    0.800000    0.300000    0.300000     0.00000    1.000000    
    233 Au    c    0.800000    0.300000    0.500000     0.00000    1.000000    
    234 Au    c    0.800000    0.300000    0.700000     0.00000    1.000000    
    235 Au    c    0.800000    0.300000    0.900000     0.00000    1.000000    
    236 Au    c    0.800000    0.500000    0.100000     0.00000    1.000000    
    237 Au    c    0.800000    0.500000    0.300000     0.00000    1.000000    
    238 Au    c    0.800000    0.500000    0.500000     0.00000    1.000000    
    239 Au    c    0.800000    0.500000    0.700000     0.00000    1.000000    
    240 Au    c    0.800000    0.500000    0.900000     0.00000    1.000000    
    241 Au    c    0.800000    0.700000    0.100000     0.00000    1.000000    
    242 Au    c    0.800000    0.700000    0.300000     0.00000    1.000000    
    243 Au    c    0.800000    0.700000    0.500000     0.00000    1.000000    
    244 Au    c    0.800000    0.700000    0.700000     0.00000    1.000000    
    245 Au    c    0.800000    0.700000    0.900000     0.00000    1.000000    
    246 Au    c    0.800000    0.900000    0.100000     0.00000    1.000000    
    247 Au    c    0.800000    0.900000    0.300000     0.00000    1.000000    
    248 Au    c    0.800000    0.900000    0.500000     0.00000    1.000000    
    249 Au    c    0.800000    0.900000    0.700000     0.00000    1.000000    
    250 Au    c    0.800000    0.900000    0.900000     0.00000    1.000000    
    251 Au    c    0.100000    0.000000    0.300000     0.00000    1.000000    
    252 Au    c    0.100000    0.000000    0.500000     0.00000    1.000000    
    253 Au    c    0.100000    0.000000    0.700000     0.00000    1.000000    
    254 Au    c    0.100000    0.000000    0.900000     0.00000    1.000000    
    255 Au    c    0.100000    0.200000    0.100000     0.00000    1.000000    
    256 Au    c    0.100000    0.200000    0.300000     0.00000    1.000000    
    257 Au    c    0.100000    0.200000    0.500000     0.00000    1.000000    
    258 Au    c    0.100000    0.200000    0.700000     0.00000    1.000000    
    259 Au    c    0.100000    0.200000    0.900000     0.00000    1.000000    
    260 Au    c    0.100000    0.400000    0.100000     0.00000    1.000000    
    261 Au    c    0.100000    0.400000    0.300000     0.00000    1.000000    
    262 Au    c    0.100000    0.400000    0.500000     0.00000    1.000000    
    263 Au    c    0.100000    0.400000    0.700000     0.00000    1.000000    
    264 Au    c    0.100000    0.400000    0.900000     0.00000    1.000000    
    265 Au    c    0.100000    0.600000    0.100000     0.00000    1.000000    
    266 Au    c    0.100000    0.600000    0.300000     0.00000    1.000000    
    267 Au    c    0.100000    0.600000    0.500000     0.00000    1.000000    
    268 Au    c    0.100000    0.600000    0.700000     0.00000    1.000000    
    269 Au    c    0.100000    0.600000    0.900000     0.00000    1.000000    
    270 Au    c    0.100000    0.800000    0.100000     0.00000    1.000000    
    271 Au    c    0.100000    0.800000    0.300000     0.00000    1.000000    
    272 Au    c    0.100000    0.800000    0.500000     0.00000    1.000000    
    273 Au    c    0.100000    0.800000    0.700000     0.00000    1.000000    
    274 Au    c    0.100000    0.800000    0.900000     0.00000    1.000000    
    275 Au    c    0.300000    0.000000    0.100000     0.00000    1.000000    
    276 Au    c    0.300000    0.000000    0.300000     0.00000    1.000000    
    277 Au    c    0.300000    0.000000    0.500000     0.00000    1.000000    
    278 Au    c    0.300000    0.000000    0.700000     0.00000    1.000000    
    279 Au    c    0.300000    0.000000    0.900000     0.00000    1.000000    
    280 Au    c    0.300000    0.200000    0.100000     0.00000    1.000000    
    281 Au    c    0.300000    0.200000    0.300000     0.00000    1.000000    
    282 Au    c    0.300000    0.200000    0.500000     0.00000    1.000000    
    283 Au    c    0.300000    0.200000    0.700000     0.00000    1.000000    
    284 Au    c    0.300000    0.200000    0.900000     0.00000    1.000000    
    285 Au    c    0.300000    0.400000    0.100000     0.00000    1.000000    
    286 Au    c    0.300000    0.400000    0.300000     0.00000    1.000000    
    287 Au    c    0.300000    0.400000    0.500000     0.00000    1.000000    
    288 Au    c    0.300000    0.400000    0.700000     0.00000    1.000000    
    289 Au    c    0.300000    0.400000    0.900000     0.00000    1.000000    
    290 Au    c    0.300000    0.600000    0.100000     0.00000    1.000000    
    291 Au    c    0.300000    0.600000    0.300000     0.00000    1.000000    
    292 Au    c    0.300000    0.600000    0.500000     0.00000    1.000000    
    293 Au    c    0.300000    0.600000    0.700000     0.00000    1.000000    
    294 Au    c    0.300000    0.600000    0.900000     0.00000    1.000000    
    295 Au    c    0.300000    0.800000    0.100000     0.00000    1.000000    
    296 Au    c    0.300000    0.800000    0.300000     0.00000    1.000000    
    297 Au    c    0.300000    0.800000    0.500000     0.00000    1.000000    
    298 Au    c    0.300000    0.800000    0.700000     0.00000    1.000000    
    299 Au    c    0.300000    0.800000    0.900000     0.00000    1.000000    
    300 Au    c    0.500000    0.000000    0.100000     0.00000    1.000000    
    301 Au    c    0.500000    0.000000    0.300000     0.00000    1.000000    
    302 Au    c    0.500000    0.000000    0.500000     0.00000    1.000000    
    303 Au    c    0.500000    0.000000    0.700000     0.00000    1.000000    
    304 Au    c    0.500000    0.000000    0.900000     0.00000    1.000000    
    305 Au    c    0.500000    0.200000    0.100000     0.00000    1.000000    
    306 Au    c    0.500000    0.200000    0.300000     0.00000    1.000000    
    307 Au    c    0.500000    0.200000    0.500000     0.00000    1.000000    
    308 Au    c    0.500000    0.200000    0.700000     0.00000    1.000000    
    309 Au    c    0.500000    0.200000    0.900000     0.00000    1.000000    
    310 Au    c    0.500000    0.400000    0.100000     0.00000    1.000000    
    311 Au    c    0.500000    0.400000    0.300000     0.00000    1.000000    
    312 Au    c    0.500000    0.400000    0.500000     0.00000    1.000000    
    313 Au    c    0.500000    0.400000    0.700000     0.00000    1.000000    
    314 Au    c    0.500000    0.400000    0.900000     0.00000    1.000000    
    315 Au    c    0.500000    0.600000    0.100000     0.00000    1.000000    
    316 Au    c    0.500000    0.600000    0.300000     0.00000    1.000000    
    317 Au    c    0.500000    0.600000    0.500000     0.00000    1.000000    
    318 Au    c    0.500000    0.600000    0.700000     0.00000    1.000000    
    319 Au    c    0.500000    0.600000    0.900000     0.00000    1.000000    
    320 Au    c    0.500000    0.800000    0.100000     0.00000    1.000000    
    321 Au    c    0.500000    0.800000    0.300000     0.00000    1.000000    
    322 Au    c    0.500000    0.800000    0.500000     0.00000    1.000000    
    323 Au    c    0.500000    0.800000    0.700000     0.00000    1.000000    
    324 Au    c    0.500000    0.800000    0.900000     0.00000    1.000000    
    325 Au    c    0.700000    0.000000    0.100000     0.00000    1.000000    
    326 Au    c    0.700000    0.000000    0.300000     0.00000    1.000000    
    327 Au    c    0.700000    0.000000    0.500000     0.00000    1.000000    
    328 Au    c    0.700000    0.000000    0.700000     0.00000    1.000000    
    329 Au    c    0.700000    0.000000    0.900000     0.00000    1.000000    
    330 Au    c    0.700000    0.200000    0.100000     0.00000    1.000000    
    331 Au    c    0.700000    0.200000    0.300000     0.00000    1.000000    
    332 Au    c    0.700000    0.200000    0.500000     0.00000    1.000000    
    333 Au    c    0.700000    0.200000    0.700000     0.00000    1.000000    
    334 Au    c    0.700000    0.200000    0.900000     0.00000    1.000000    
    335 Au    c    0.700000    0.400000    0.100000     0.00000    1.000000    
    336 Au    c    0.700000    0.400000    0.300000     0.00000    1.000000    
    337 Au    c    0.700000    0.400000    0.500000     0.00000    1.000000    
    338 Au    c    0.700000    0.400000    0.700000     0.00000    1.000000    
    339 Au    c    0.700000    0.400000    0.900000     0.00000    1.000000    
    340 Au    c    0.700000    0.600000    0.100000     0.00000    1.000000    
    341 Au    c    0.700000    0.600000    0.300000     0.00000    1.000000    
    342 Au    c    0.700000    0.600000    0.500000     0.00000    1.000000    
    343 Au    c    0.700000    0.600000    0.700000     0.00000    1.000000    
    344 Au    c    0.700000    0.600000    0.900000     0.00000    1.000000    
    345 Au    c    0.700000    0.800000    0.100000     0.00000    1.000000    
    346 Au    c    0.700000    0.800000    0.300000     0.00000    1.000000    
    347 Au    c    0.700000    0.800000    0.500000     0.00000    1.000000    
    348 Au    c    0.700000    0.800000    0.700000     0.00000    1.000000    
    349 Au    c    0.700000    0.800000    0.900000     0.00000    1.000000    
    350 Au    c    0.900000    0.000000    0.100000     0.00000    1.000000    
    351 Au    c    0.900000    0.000000    0.300000     0.00000    1.000000    
    352 Au    c    0.900000    0.000000    0.500000     0.00000    1.000000    
    353 Au    c    0.900000    0.000000    0.700000     0.00000    1.000000    
    354 Au    c    0.900000    0.000000    0.900000     0.00000    1.000000    
    355 Au    c    0.900000    0.200000    0.100000     0.00000    1.000000    
    356 Au    c    0.900000    0.200000    0.300000     0.00000    1.000000    
    357 Au    c    0.900000    0.200000    0.500000     0.00000    1.000000    
    358 Au    c    0.900000    0.200000    0.700000     0.00000    1.000000    
    359 Au    c    0.900000    0.200000    0.900000     0.00000    1.000000    
    360 Au    c    0.900000    0.400000    0.100000     0.00000    1.000000    
    361 Au    c    0.900000    0.400000    0.300000     0.00000    1.000000    
    362 Au    c    0.900000    0.400000    0.500000     0.00000    1.000000    
    363 Au    c    0.900000    0.400000    0.700000     0.00000    1.000000    
    364 Au    c    0.900000    0.400000    0.900000     0.00000    1.000000    
    365 Au    c    0.900000    0.600000    0.100000     0.00000    1.000000    
    366 Au    c    0.900000    0.600000    0.300000     0.00000    1.000000    
    367 Au    c    0.900000    0.600000    0.500000     0.00000    1.000000    
    368 Au    c    0.900000    0.600000    0.700000     0.00000    1.000000    
    369 Au    c    0.900000    0.600000    0.900000     0.00000    1.000000    
    370 Au    c    0.900000    0.800000    0.100000     0.00000    1.000000    
    371 Au    c    0.900000    0.800000    0.300000     0.00000    1.000000    
    372 Au    c    0.900000    0.800000    0.500000     0.00000    1.000000    
    373 Au    c    0.900000    0.800000    0.700000     0.00000    1.000000    
    374 Au    c    0.900000    0.800000    0.900000     0.00000    1.000000    
    375 Au    c    0.100000    0.100000    0.000000     0.00000    1.000000    
    376 Au    c    0.100000    0.100000    0.200000     0.00000    1.000000    
    377 Au    c    0.100000    0.100000    0.400000     0.00000    1.000000    
    378 Au    c    0.100000    0.100000    0.600000     0.00000    1.000000    
    379 Au    c    0.100000    0.100000    0.800000     0.00000    1.000000    
    380 Au    c    0.100000    0.300000    0.000000     0.00000    1.000000    
    381 Au    c    0.100000    0.300000    0.200000     0.00000    1.000000    
    382 Au    c    0.100000    0.300000    0.400000     0.00000    1.000000    
    383 Au    c    0.100000    0.300000    0.600000     0.00000    1.000000    
    384 Au    c    0.100000    0.300000    0.800000     0.00000    1.000000    
    385 Au    c    0.100000    0.500000    0.000000     0.00000    1.000000    
    386 Au    c    0.100000    0.500000    0.200000     0.00000    1.000000    
    387 Au    c    0.100000    0.500000    0.400000     0.00000    1.000000    
    388 Au    c    0.100000    0.500000    0.600000     0.00000    1.000000    
    389 Au    c    0.100000    0.500000    0.800000     0.00000    1.000000    
    390 Au    c    0.100000    0.700000    0.000000     0.00000    1.000000    
    391 Au    c    0.100000    0.700000    0.200000     0.00000    1.000000    
    392 Au    c    0.100000    0.700000    0.400000     0.00000    1.000000    
    393 Au    c    0.100000    0.700000    0.600000     0.00000    1.000000    
    394 Au    c    0.100000    0.700000    0.800000     0.00000    1.000000    
    395 Au    c    0.100000    0.900000    0.000000     0.00000    1.000000    
    396 Au    c    0.100000    0.900000    0.200000     0.00000    1.000000    
    397 Au    c    0.100000    0.900000    0.400000     0.00000    1.000000    
    398 Au    c    0.100000    0.900000    0.600000     0.00000    1.000000    
    399 Au    c    0.100000    0.900000    0.800000     0.00000    1.000000    
    400 Au    c    0.300000    0.100000    0.000000     0.00000    1.000000    
    401 Au    c    0.300000    0.100000    0.200000     0.00000    1.000000    
    402 Au    c    0.300000    0.100000    0.400000     0.00000    1.000000    
    403 Au    c    0.300000    0.100000    0.600000     0.00000    1.000000    
    404 Au    c    0.300000    0.100000    0.800000     0.00000    1.000000    
    405 Au    c    0.300000    0.300000    0.000000     0.00000    1.000000    
    406 Au    c    0.300000    0.300000    0.200000     0.00000    1.000000    
    407 Au    c    0.300000    0.300000    0.400000     0.00000    1.000000    
    408 Au    c    0.300000    0.300000    0.600000     0.00000    1.000000    
    409 Au    c    0.300000    0.300000    0.800000     0.00000    1.000000    
    410 Au    c    0.300000    0.500000    0.000000     0.00000    1.000000    
    411 Au    c    0.300000    0.500000    0.200000     0.00000    1.000000    
    412 Au    c    0.300000    0.500000    0.400000     0.00000    1.000000    
    413 Au    c    0.300000    0.500000    0.600000     0.00000    1.000000    
    414 Au    c    0.300000    0.500000    0.800000     0.00000    1.000000    
    415 Au    c    0.300000    0.700000    0.000000     0.00000    1.000000    
    416 Au    c    0.300000    0.700000    0.200000     0.00000    1.000000    
    417 Au    c    0.300000    0.700000    0.400000     0.00000    1.000000    
    418 Au    c    0.300000    0.700000    0.600000     0.00000    1.000000    
    419 Au    c    0.300000    0.700000    0.800000     0.00000    1.000000    
    420 Au    c    0.300000    0.900000    0.000000     0.00000    1.000000    
    421 Au    c    0.300000    0.900000    0.200000     0.00000    1.000000    
    422 Au    c    0.300000    0.900000    0.400000     0.00000    1.000000    
    423 Au    c    0.300000    0.900000    0.600000     0.00000    1.000000    
    424 Au    c    0.300000    0.900000    0.800000     0.00000    1.000000    
    425 Au    c    0.500000    0.100000    0.000000     0.00000    1.000000    
    426 Au    c    0.500000    0.100000    0.200000     0.00000    1.000000    
    427 Au    c    0.500000    0.100000    0.400000     0.00000    1.000000    
    428 Au    c    0.500000    0.100000    0.600000     0.00000    1.000000    
    429 Au    c    0.500000    0.100000    0.800000     0.00000    1.000000    
    430 Au    c    0.500000    0.300000    0.000000     0.00000    1.000000    
    431 Au    c    0.500000    0.300000    0.200000     0.00000    1.000000    
    432 Au    c    0.500000    0.300000    0.400000     0.00000    1.000000    
    433 Au    c    0.500000    0.300000    0.600000     0.00000    1.000000    
    434 Au    c    0.500000    0.300000    0.800000     0.00000    1.000000    
    435 Au    c    0.500000    0.500000    0.000000     0.00000    1.000000    
    436 Au    c    0.500000    0.500000    0.200000     0.00000    1.000000    
    437 Au    c    0.500000    0.500000    0.400000     0.00000    1.000000    
    438 Au    c    0.500000    0.500000    0.600000     0.00000    1.000000    
    439 Au    c    0.500000    0.500000    0.800000     0.00000    1.000000    
    440 Au    c    0.500000    0.700000    0.000000     0.00000    1.000000    
    441 Au    c    0.500000    0.700000    0.200000     0.00000    1.000000    
    442 Au    c    0.500000    0.700000    0.400000     0.00000    1.000000    
    443 Au    c    0.500000    0.700000    0.600000     0.00000    1.000000    
    444 Au    c    0.500000    0.700000    0.800000     0.00000    1.000000    
    445 Au    c    0.500000    0.900000    0.000000     0.00000    1.000000    
    446 Au    c    0.500000    0.900000    0.200000     0.00000    1.000000    
    447 Au    c    0.500000    0.900000    0.400000     0.00000    1.000000    
    448 Au    c    0.500000    0.900000    0.600000     0.00000    1.000000    
    449 Au    c    0.500000    0.900000    0.800000     0.00000    1.000000    
    450 Au    c    0.700000    0.100000    0.000000     0.00000    1.000000    
    451 Au    c    0.700000    0.100000    0.200000     0.00000    1.000000    
    452 Au    c    0.700000    0.100000    0.400000     0.00000    1.000000    
    453 Au    c    0.700000    0.100000    0.600000     0.00000    1.000000    
    454 Au    c    0.700000    0.100000    0.800000     0.00000    1.000000    
    455 Au    c    0.700000    0.300000    0.000000     0.00000    1.000000    
    456 Au    c    0.700000    0.300000    0.200000     0.00000    1.000000    
    457 Au    c    0.700000    0.300000    0.400000     0.00000    1.000000    
    458 Au    c    0.700000    0.300000    0.600000     0.00000    1.000000    
    459 Au    c    0.700000    0.300000    0.800000     0.00000    1.000000    
    460 Au    c    0.700000    0.500000    0.000000     0.00000    1.000000    
    461 Au    c    0.700000    0.500000    0.200000     0.00000    1.000000    
    462 Au    c    0.700000    0.500000    0.400000     0.00000    1.000000    
    463 Au    c    0.700000    0.500000    0.600000     0.00000    1.000000    
    464 Au    c    0.700000    0.500000    0.800000     0.00000    1.000000    
    465 Au    c    0.700000    0.700000    0.000000     0.00000    1.000000    
    466 Au    c    0.700000    0.700000    0.200000     0.00000    1.000000    
    467 Au    c    0.700000    0.700000    0.400000     0.00000    1.000000    
    468 Au    c    0.700000    0.700000    0.600000     0.00000    1.000000    
    469 Au    c    0.700000    0.700000    0.800000     0.00000    1.000000    
    470 Au    c    0.700000    0.900000    0.000000     0.00000    1.000000    
    471 Au    c    0.700000    0.900000    0.200000     0.00000    1.000000    
    472 Au    c    0.700000    0.900000    0.400000     0.00000    1.000000    
    473 Au    c    0.700000    0.900000    0.600000     0.00000    1.000000    
    474 Au    c    0.700000    0.900000    0.800000     0.00000    1.000000    
    475 Au    c    0.900000    0.100000    0.000000     0.00000    1.000000    
    476 Au    c    0.900000    0.100000    0.200000     0.00000    1.000000    
    477 Au    c    0.900000    0.100000    0.400000     0.00000    1.000000    
    478 Au    c    0.900000    0.100000    0.600000     0.00000    1.000000    
    479 Au    c    0.900000    0.100000    0.800000     0.00000    1.000000    
    480 Au    c    0.900000    0.300000    0.000000     0.00000    1.000000    
    481 Au    c    0.900000    0.300000    0.200000     0.00000    1.000000    
    482 Au    c    0.900000    0.300000    0.400000     0.00000    1.000000    
    483 Au    c    0.900000    0.300000    0.600000     0.00000    1.000000    
    484 Au    c    0.900000    0.300000    0.800000     0.00000    1.000000    
    485 Au    c    0.900000    0.500000    0.000000     0.00000    1.000000    
    486 Au    c    0.900000    0.500000    0.200000     0.00000    1.000000    
    487 Au    c    0.900000    0.500000    0.400000     0.00000    1.000000    
    488 Au    c    0.900000    0.500000    0.600000     0.00000    1.000000    
    489 Au    c    0.900000    0.500000    0.800000     0.00000    1.000000    
    490 Au    c    0.900000    0.700000    0.000000     0.00000    1.000000    
    491 Au    c    0.900000    0.700000    0.200000     0.00000    1.000000    
    492 Au    c    0.900000    0.700000    0.400000     0.00000    1.000000    
    493 Au    c    0.900000    0.700000    0.600000     0.00000    1.000000    
    494 Au    c    0.900000    0.700000    0.800000     0.00000    1.000000    
    495 Au    c    0.900000    0.900000    0.000000     0.00000    1.000000    
    496 Au    c    0.900000    0.900000    0.200000     0.00000    1.000000    
    497 Au    c    0.900000    0.900000    0.400000     0.00000    1.000000    
    498 Au    c    0.900000    0.900000    0.600000     0.00000    1.000000    
    499 Au    c    0.900000    0.900000    0.800000     0.00000    1.000000    
--------------------------------------------------------------------------------



  Distance calculation :


  Cutoff for distances  =      2.000000 Angstroms

--------------------------------------------------------------------------------
  Asymmetric unit site  Full lattice sites    No.  Distance      No.  Distance
      No.   At.No.            At.No.                (Angs)             (Angs) 
--------------------------------------------------------------------------------



********************************************************************************
*  General input information                                                   *
********************************************************************************

  Species output for all configurations : 

--------------------------------------------------------------------------------
  Species    Type    Atomic    Atomic    Charge       Radii (Angs)     Library
                     Number     Mass       (e)     Cova   Ionic  VDW   Symbol
--------------------------------------------------------------------------------
    Au       Core       79     196.97   0.000000   1.500  0.000  1.850          
--------------------------------------------------------------------------------


  Lattice summation method               =    Ewald          (3-D)
                                         =    Parry          (2-D)
                                         =    Saunders et al (1-D)
  Accuracy factor for lattice sums       =   12.000


  Time limit = Infinity

  Maximum range for interatomic potentials =    100000.000000 Angstroms

  General interatomic potentials :

--------------------------------------------------------------------------------
Atom  Types   Potential      Parameter       Value         Units   Cutoffs(Ang)
  1     2                                                            Min /  Max 
--------------------------------------------------------------------------------
Au   c Au   c Many-body                                             0.000 12.000
--------------------------------------------------------------------------------
Au   c Au   c Lennard       Lennard-Jones A  16352.119    eV*Ang^m  0.000 12.000
                            Lennard-Jones B  0.0000000    eV*Ang^n  
                            Exponent m        10          None
                            Exponent n         6          None
--------------------------------------------------------------------------------

  Embedded Atom Model Densities :

--------------------------------------------------------------------------------
  Atom(s)       Functional Form          A          B          C         n      
--------------------------------------------------------------------------------
  Au   c        Power Law           0.1488E+05  0.000      0.000         8
--------------------------------------------------------------------------------


  Embedded Atom Model alloy parameters :

--------------------------------------------------------------------------------
  Atom(s)                          Scale factor 
--------------------------------------------------------------------------------
  Au    c                            1.000000
--------------------------------------------------------------------------------

  Embedded Atom Model functional = Square Root

--------------------------------------------------------------------------------
  Atom                     A     
--------------------------------------------------------------------------------
  Au    c               1.000000
--------------------------------------------------------------------------------


  Manybody second derivative cross term cutoffs to be scaled by = 0.50000000

********************************************************************************
*  Output for configuration   1                                                *
********************************************************************************


  Components of energy : 

--------------------------------------------------------------------------------
  Interatomic potentials     =        1264.19521846 eV    
  Many-body potentials       =       -3149.31695871 eV    
  Monopole - monopole (real) =           0.00000000 eV    
  Monopole - monopole (recip)=           0.00000000 eV    
  Monopole - monopole (total)=           0.00000000 eV    
--------------------------------------------------------------------------------
  Total lattice energy       =       -1885.12174025 eV    
--------------------------------------------------------------------------------
  Total lattice energy       =         -181885.4312 kJ/(mole unit cells)
--------------------------------------------------------------------------------

  Peak dynamic memory used =       2.05 MB 


  Timing analysis for GULP :

--------------------------------------------------------------------------------
  Task / Subroutine                                          Time (Seconds)
--------------------------------------------------------------------------------
  Calculation of real space energy and derivatives                0.0440
--------------------------------------------------------------------------------
  Total CPU time                                                  0.1104
--------------------------------------------------------------------------------


  Dump file written as au_eam_5.grs


  Job Finished at 20:57.01  6th January    2019                               

