********************************************************************************
*                       GENERAL UTILITY LATTICE PROGRAM                        *
*                                 Julian Gale                                  *
*                       Curtin Institute for Computation                       *
*                           Department of Chemistry                            *
*                    Curtin University, Western Australia                      *
********************************************************************************
* Version = 5.1.1 * Last modified =  24th November 2018                        *
********************************************************************************
*  single       - perform a single point run                                   *
*  conp         - constant pressure calculation                                *
*  distance     - calculate distances                                          *
********************************************************************************

  Job Started  at 20:56.58  6th January    2019                               

  Number of CPUs =     1


  Total number of configurations input =      1

********************************************************************************
*  Input for Configuration =   1                                               *
********************************************************************************

  Formula = Au108                                                       

  Number of irreducible atoms/shells =     108


  Total number atoms/shells =     108

  Dimensionality = 3               :  Bulk   



  Cartesian lattice vectors (Angstroms) :

       12.231000    0.000000    0.000000
        0.000000   12.231000    0.000000
        0.000000    0.000000   12.231000

  Cell parameters (Angstroms/Degrees):

  a =      12.2310    alpha =  90.0000
  b =      12.2310    beta  =  90.0000
  c =      12.2310    gamma =  90.0000

  Initial cell volume =        1829.725322 Angs**3

  Temperature of configuration =  0.000     K 

  Pressure of configuration =         0.000 GPa 

  Fractional coordinates of asymmetric unit :

--------------------------------------------------------------------------------
   No.  Atomic       x           y          z         Charge      Occupancy
        Label      (Frac)      (Frac)     (Frac)        (e)         (Frac)  
--------------------------------------------------------------------------------
      1 Au    c    0.000000    0.000000    0.000000     0.00000    1.000000    
      2 Au    c    0.000000    0.000000    0.333333     0.00000    1.000000    
      3 Au    c    0.000000    0.000000    0.666667     0.00000    1.000000    
      4 Au    c    0.000000    0.333333    0.000000     0.00000    1.000000    
      5 Au    c    0.000000    0.333333    0.333333     0.00000    1.000000    
      6 Au    c    0.000000    0.333333    0.666667     0.00000    1.000000    
      7 Au    c    0.000000    0.666667    0.000000     0.00000    1.000000    
      8 Au    c    0.000000    0.666667    0.333333     0.00000    1.000000    
      9 Au    c    0.000000    0.666667    0.666667     0.00000    1.000000    
     10 Au    c    0.333333    0.000000    0.000000     0.00000    1.000000    
     11 Au    c    0.333333    0.000000    0.333333     0.00000    1.000000    
     12 Au    c    0.333333    0.000000    0.666667     0.00000    1.000000    
     13 Au    c    0.333333    0.333333    0.000000     0.00000    1.000000    
     14 Au    c    0.333333    0.333333    0.333333     0.00000    1.000000    
     15 Au    c    0.333333    0.333333    0.666667     0.00000    1.000000    
     16 Au    c    0.333333    0.666667    0.000000     0.00000    1.000000    
     17 Au    c    0.333333    0.666667    0.333333     0.00000    1.000000    
     18 Au    c    0.333333    0.666667    0.666667     0.00000    1.000000    
     19 Au    c    0.666667    0.000000    0.000000     0.00000    1.000000    
     20 Au    c    0.666667    0.000000    0.333333     0.00000    1.000000    
     21 Au    c    0.666667    0.000000    0.666667     0.00000    1.000000    
     22 Au    c    0.666667    0.333333    0.000000     0.00000    1.000000    
     23 Au    c    0.666667    0.333333    0.333333     0.00000    1.000000    
     24 Au    c    0.666667    0.333333    0.666667     0.00000    1.000000    
     25 Au    c    0.666667    0.666667    0.000000     0.00000    1.000000    
     26 Au    c    0.666667    0.666667    0.333333     0.00000    1.000000    
     27 Au    c    0.666667    0.666667    0.666667     0.00000    1.000000    
     28 Au    c    0.000000    0.166667    0.166667     0.00000    1.000000    
     29 Au    c    0.000000    0.166667    0.500000     0.00000    1.000000    
     30 Au    c    0.000000    0.166667    0.833333     0.00000    1.000000    
     31 Au    c    0.000000    0.500000    0.166667     0.00000    1.000000    
     32 Au    c    0.000000    0.500000    0.500000     0.00000    1.000000    
     33 Au    c    0.000000    0.500000    0.833333     0.00000    1.000000    
     34 Au    c    0.000000    0.833333    0.166667     0.00000    1.000000    
     35 Au    c    0.000000    0.833333    0.500000     0.00000    1.000000    
     36 Au    c    0.000000    0.833333    0.833333     0.00000    1.000000    
     37 Au    c    0.333333    0.166667    0.166667     0.00000    1.000000    
     38 Au    c    0.333333    0.166667    0.500000     0.00000    1.000000    
     39 Au    c    0.333333    0.166667    0.833333     0.00000    1.000000    
     40 Au    c    0.333333    0.500000    0.166667     0.00000    1.000000    
     41 Au    c    0.333333    0.500000    0.500000     0.00000    1.000000    
     42 Au    c    0.333333    0.500000    0.833333     0.00000    1.000000    
     43 Au    c    0.333333    0.833333    0.166667     0.00000    1.000000    
     44 Au    c    0.333333    0.833333    0.500000     0.00000    1.000000    
     45 Au    c    0.333333    0.833333    0.833333     0.00000    1.000000    
     46 Au    c    0.666667    0.166667    0.166667     0.00000    1.000000    
     47 Au    c    0.666667    0.166667    0.500000     0.00000    1.000000    
     48 Au    c    0.666667    0.166667    0.833333     0.00000    1.000000    
     49 Au    c    0.666667    0.500000    0.166667     0.00000    1.000000    
     50 Au    c    0.666667    0.500000    0.500000     0.00000    1.000000    
     51 Au    c    0.666667    0.500000    0.833333     0.00000    1.000000    
     52 Au    c    0.666667    0.833333    0.166667     0.00000    1.000000    
     53 Au    c    0.666667    0.833333    0.500000     0.00000    1.000000    
     54 Au    c    0.666667    0.833333    0.833333     0.00000    1.000000    
     55 Au    c    0.166667    0.000000    0.166667     0.00000    1.000000    
     56 Au    c    0.166667    0.000000    0.500000     0.00000    1.000000    
     57 Au    c    0.166667    0.000000    0.833333     0.00000    1.000000    
     58 Au    c    0.166667    0.333333    0.166667     0.00000    1.000000    
     59 Au    c    0.166667    0.333333    0.500000     0.00000    1.000000    
     60 Au    c    0.166667    0.333333    0.833333     0.00000    1.000000    
     61 Au    c    0.166667    0.666667    0.166667     0.00000    1.000000    
     62 Au    c    0.166667    0.666667    0.500000     0.00000    1.000000    
     63 Au    c    0.166667    0.666667    0.833333     0.00000    1.000000    
     64 Au    c    0.500000    0.000000    0.166667     0.00000    1.000000    
     65 Au    c    0.500000    0.000000    0.500000     0.00000    1.000000    
     66 Au    c    0.500000    0.000000    0.833333     0.00000    1.000000    
     67 Au    c    0.500000    0.333333    0.166667     0.00000    1.000000    
     68 Au    c    0.500000    0.333333    0.500000     0.00000    1.000000    
     69 Au    c    0.500000    0.333333    0.833333     0.00000    1.000000    
     70 Au    c    0.500000    0.666667    0.166667     0.00000    1.000000    
     71 Au    c    0.500000    0.666667    0.500000     0.00000    1.000000    
     72 Au    c    0.500000    0.666667    0.833333     0.00000    1.000000    
     73 Au    c    0.833333    0.000000    0.166667     0.00000    1.000000    
     74 Au    c    0.833333    0.000000    0.500000     0.00000    1.000000    
     75 Au    c    0.833333    0.000000    0.833333     0.00000    1.000000    
     76 Au    c    0.833333    0.333333    0.166667     0.00000    1.000000    
     77 Au    c    0.833333    0.333333    0.500000     0.00000    1.000000    
     78 Au    c    0.833333    0.333333    0.833333     0.00000    1.000000    
     79 Au    c    0.833333    0.666667    0.166667     0.00000    1.000000    
     80 Au    c    0.833333    0.666667    0.500000     0.00000    1.000000    
     81 Au    c    0.833333    0.666667    0.833333     0.00000    1.000000    
     82 Au    c    0.166667    0.166667    0.000000     0.00000    1.000000    
     83 Au    c    0.166667    0.166667    0.333333     0.00000    1.000000    
     84 Au    c    0.166667    0.166667    0.666667     0.00000    1.000000    
     85 Au    c    0.166667    0.500000    0.000000     0.00000    1.000000    
     86 Au    c    0.166667    0.500000    0.333333     0.00000    1.000000    
     87 Au    c    0.166667    0.500000    0.666667     0.00000    1.000000    
     88 Au    c    0.166667    0.833333    0.000000     0.00000    1.000000    
     89 Au    c    0.166667    0.833333    0.333333     0.00000    1.000000    
     90 Au    c    0.166667    0.833333    0.666667     0.00000    1.000000    
     91 Au    c    0.500000    0.166667    0.000000     0.00000    1.000000    
     92 Au    c    0.500000    0.166667    0.333333     0.00000    1.000000    
     93 Au    c    0.500000    0.166667    0.666667     0.00000    1.000000    
     94 Au    c    0.500000    0.500000    0.000000     0.00000    1.000000    
     95 Au    c    0.500000    0.500000    0.333333     0.00000    1.000000    
     96 Au    c    0.500000    0.500000    0.666667     0.00000    1.000000    
     97 Au    c    0.500000    0.833333    0.000000     0.00000    1.000000    
     98 Au    c    0.500000    0.833333    0.333333     0.00000    1.000000    
     99 Au    c    0.500000    0.833333    0.666667     0.00000    1.000000    
    100 Au    c    0.833333    0.166667    0.000000     0.00000    1.000000    
    101 Au    c    0.833333    0.166667    0.333333     0.00000    1.000000    
    102 Au    c    0.833333    0.166667    0.666667     0.00000    1.000000    
    103 Au    c    0.833333    0.500000    0.000000     0.00000    1.000000    
    104 Au    c    0.833333    0.500000    0.333333     0.00000    1.000000    
    105 Au    c    0.833333    0.500000    0.666667     0.00000    1.000000    
    106 Au    c    0.833333    0.833333    0.000000     0.00000    1.000000    
    107 Au    c    0.833333    0.833333    0.333333     0.00000    1.000000    
    108 Au    c    0.833333    0.833333    0.666667     0.00000    1.000000    
--------------------------------------------------------------------------------



  Distance calculation :


  Cutoff for distances  =      2.000000 Angstroms

--------------------------------------------------------------------------------
  Asymmetric unit site  Full lattice sites    No.  Distance      No.  Distance
      No.   At.No.            At.No.                (Angs)             (Angs) 
--------------------------------------------------------------------------------



********************************************************************************
*  General input information                                                   *
********************************************************************************

  Species output for all configurations : 

--------------------------------------------------------------------------------
  Species    Type    Atomic    Atomic    Charge       Radii (Angs)     Library
                     Number     Mass       (e)     Cova   Ionic  VDW   Symbol
--------------------------------------------------------------------------------
    Au       Core       79     196.97   0.000000   1.500  0.000  1.850          
--------------------------------------------------------------------------------


  Lattice summation method               =    Ewald          (3-D)
                                         =    Parry          (2-D)
                                         =    Saunders et al (1-D)
  Accuracy factor for lattice sums       =   12.000


  Time limit = Infinity

  Maximum range for interatomic potentials =    100000.000000 Angstroms

  General interatomic potentials :

--------------------------------------------------------------------------------
Atom  Types   Potential      Parameter       Value         Units   Cutoffs(Ang)
  1     2                                                            Min /  Max 
--------------------------------------------------------------------------------
Au   c Au   c Many-body                                             0.000 12.000
--------------------------------------------------------------------------------
Au   c Au   c Lennard       Lennard-Jones A  16352.119    eV*Ang^m  0.000 12.000
                            Lennard-Jones B  0.0000000    eV*Ang^n  
                            Exponent m        10          None
                            Exponent n         6          None
--------------------------------------------------------------------------------

  Embedded Atom Model Densities :

--------------------------------------------------------------------------------
  Atom(s)       Functional Form          A          B          C         n      
--------------------------------------------------------------------------------
  Au   c        Power Law           0.1488E+05  0.000      0.000         8
--------------------------------------------------------------------------------


  Embedded Atom Model alloy parameters :

--------------------------------------------------------------------------------
  Atom(s)                          Scale factor 
--------------------------------------------------------------------------------
  Au    c                            1.000000
--------------------------------------------------------------------------------

  Embedded Atom Model functional = Square Root

--------------------------------------------------------------------------------
  Atom                     A     
--------------------------------------------------------------------------------
  Au    c               1.000000
--------------------------------------------------------------------------------


  Manybody second derivative cross term cutoffs to be scaled by = 0.50000000

********************************************************************************
*  Output for configuration   1                                                *
********************************************************************************


  Components of energy : 

--------------------------------------------------------------------------------
  Interatomic potentials     =         274.16281851 eV    
  Many-body potentials       =        -682.31243758 eV    
  Monopole - monopole (real) =           0.00000000 eV    
  Monopole - monopole (recip)=           0.00000000 eV    
  Monopole - monopole (total)=           0.00000000 eV    
--------------------------------------------------------------------------------
  Total lattice energy       =        -408.14961906 eV    
--------------------------------------------------------------------------------
  Total lattice energy       =          -39380.1991 kJ/(mole unit cells)
--------------------------------------------------------------------------------

  Peak dynamic memory used =       0.84 MB 


  Timing analysis for GULP :

--------------------------------------------------------------------------------
  Task / Subroutine                                          Time (Seconds)
--------------------------------------------------------------------------------
  Calculation of real space energy and derivatives                0.0057
--------------------------------------------------------------------------------
  Total CPU time                                                  0.0121
--------------------------------------------------------------------------------


  Dump file written as au_eam_3.grs


  Job Finished at 20:56.58  6th January    2019                               

