********************************************************************************
*                       GENERAL UTILITY LATTICE PROGRAM                        *
*                                 Julian Gale                                  *
*                       Curtin Institute for Computation                       *
*                           Department of Chemistry                            *
*                    Curtin University, Western Australia                      *
********************************************************************************
* Version = 5.1.1 * Last modified =  24th November 2018                        *
********************************************************************************
*  single       - perform a single point run                                   *
*  conp         - constant pressure calculation                                *
*  distance     - calculate distances                                          *
********************************************************************************

  Job Started  at 20:57.01  6th January    2019                               

  Number of CPUs =     1


  Total number of configurations input =      1

********************************************************************************
*  Input for Configuration =   1                                               *
********************************************************************************

  Formula = Au255                                                       

  Number of irreducible atoms/shells =     255


  Total number atoms/shells =     255

  Dimensionality = 3               :  Bulk   



  Cartesian lattice vectors (Angstroms) :

       16.308000    0.000000    0.000000
        0.000000   16.308000    0.000000
        0.000000    0.000000   16.308000

  Cell parameters (Angstroms/Degrees):

  a =      16.3080    alpha =  90.0000
  b =      16.3080    beta  =  90.0000
  c =      16.3080    gamma =  90.0000

  Initial cell volume =        4337.126690 Angs**3

  Temperature of configuration =  0.000     K 

  Pressure of configuration =         0.000 GPa 

  Fractional coordinates of asymmetric unit :

--------------------------------------------------------------------------------
   No.  Atomic       x           y          z         Charge      Occupancy
        Label      (Frac)      (Frac)     (Frac)        (e)         (Frac)  
--------------------------------------------------------------------------------
      1 Au    c    0.000000    0.000000    0.000000     0.00000    1.000000    
      2 Au    c    0.000000    0.000000    0.250000     0.00000    1.000000    
      3 Au    c    0.000000    0.000000    0.500000     0.00000    1.000000    
      4 Au    c    0.000000    0.000000    0.750000     0.00000    1.000000    
      5 Au    c    0.000000    0.250000    0.000000     0.00000    1.000000    
      6 Au    c    0.000000    0.250000    0.250000     0.00000    1.000000    
      7 Au    c    0.000000    0.250000    0.500000     0.00000    1.000000    
      8 Au    c    0.000000    0.250000    0.750000     0.00000    1.000000    
      9 Au    c    0.000000    0.500000    0.000000     0.00000    1.000000    
     10 Au    c    0.000000    0.500000    0.250000     0.00000    1.000000    
     11 Au    c    0.000000    0.500000    0.500000     0.00000    1.000000    
     12 Au    c    0.000000    0.500000    0.750000     0.00000    1.000000    
     13 Au    c    0.000000    0.750000    0.000000     0.00000    1.000000    
     14 Au    c    0.000000    0.750000    0.250000     0.00000    1.000000    
     15 Au    c    0.000000    0.750000    0.500000     0.00000    1.000000    
     16 Au    c    0.000000    0.750000    0.750000     0.00000    1.000000    
     17 Au    c    0.250000    0.000000    0.000000     0.00000    1.000000    
     18 Au    c    0.250000    0.000000    0.250000     0.00000    1.000000    
     19 Au    c    0.250000    0.000000    0.500000     0.00000    1.000000    
     20 Au    c    0.250000    0.000000    0.750000     0.00000    1.000000    
     21 Au    c    0.250000    0.250000    0.000000     0.00000    1.000000    
     22 Au    c    0.250000    0.250000    0.250000     0.00000    1.000000    
     23 Au    c    0.250000    0.250000    0.500000     0.00000    1.000000    
     24 Au    c    0.250000    0.250000    0.750000     0.00000    1.000000    
     25 Au    c    0.250000    0.500000    0.000000     0.00000    1.000000    
     26 Au    c    0.250000    0.500000    0.250000     0.00000    1.000000    
     27 Au    c    0.250000    0.500000    0.500000     0.00000    1.000000    
     28 Au    c    0.250000    0.500000    0.750000     0.00000    1.000000    
     29 Au    c    0.250000    0.750000    0.000000     0.00000    1.000000    
     30 Au    c    0.250000    0.750000    0.250000     0.00000    1.000000    
     31 Au    c    0.250000    0.750000    0.500000     0.00000    1.000000    
     32 Au    c    0.250000    0.750000    0.750000     0.00000    1.000000    
     33 Au    c    0.500000    0.000000    0.000000     0.00000    1.000000    
     34 Au    c    0.500000    0.000000    0.250000     0.00000    1.000000    
     35 Au    c    0.500000    0.000000    0.500000     0.00000    1.000000    
     36 Au    c    0.500000    0.000000    0.750000     0.00000    1.000000    
     37 Au    c    0.500000    0.250000    0.000000     0.00000    1.000000    
     38 Au    c    0.500000    0.250000    0.250000     0.00000    1.000000    
     39 Au    c    0.500000    0.250000    0.500000     0.00000    1.000000    
     40 Au    c    0.500000    0.250000    0.750000     0.00000    1.000000    
     41 Au    c    0.500000    0.500000    0.000000     0.00000    1.000000    
     42 Au    c    0.500000    0.500000    0.250000     0.00000    1.000000    
     43 Au    c    0.500000    0.500000    0.500000     0.00000    1.000000    
     44 Au    c    0.500000    0.500000    0.750000     0.00000    1.000000    
     45 Au    c    0.500000    0.750000    0.000000     0.00000    1.000000    
     46 Au    c    0.500000    0.750000    0.250000     0.00000    1.000000    
     47 Au    c    0.500000    0.750000    0.500000     0.00000    1.000000    
     48 Au    c    0.500000    0.750000    0.750000     0.00000    1.000000    
     49 Au    c    0.750000    0.000000    0.000000     0.00000    1.000000    
     50 Au    c    0.750000    0.000000    0.250000     0.00000    1.000000    
     51 Au    c    0.750000    0.000000    0.500000     0.00000    1.000000    
     52 Au    c    0.750000    0.000000    0.750000     0.00000    1.000000    
     53 Au    c    0.750000    0.250000    0.000000     0.00000    1.000000    
     54 Au    c    0.750000    0.250000    0.250000     0.00000    1.000000    
     55 Au    c    0.750000    0.250000    0.500000     0.00000    1.000000    
     56 Au    c    0.750000    0.250000    0.750000     0.00000    1.000000    
     57 Au    c    0.750000    0.500000    0.000000     0.00000    1.000000    
     58 Au    c    0.750000    0.500000    0.250000     0.00000    1.000000    
     59 Au    c    0.750000    0.500000    0.500000     0.00000    1.000000    
     60 Au    c    0.750000    0.500000    0.750000     0.00000    1.000000    
     61 Au    c    0.750000    0.750000    0.000000     0.00000    1.000000    
     62 Au    c    0.750000    0.750000    0.250000     0.00000    1.000000    
     63 Au    c    0.750000    0.750000    0.500000     0.00000    1.000000    
     64 Au    c    0.750000    0.750000    0.750000     0.00000    1.000000    
     65 Au    c    0.000000    0.125000    0.125000     0.00000    1.000000    
     66 Au    c    0.000000    0.125000    0.375000     0.00000    1.000000    
     67 Au    c    0.000000    0.125000    0.625000     0.00000    1.000000    
     68 Au    c    0.000000    0.125000    0.875000     0.00000    1.000000    
     69 Au    c    0.000000    0.375000    0.125000     0.00000    1.000000    
     70 Au    c    0.000000    0.375000    0.375000     0.00000    1.000000    
     71 Au    c    0.000000    0.375000    0.625000     0.00000    1.000000    
     72 Au    c    0.000000    0.375000    0.875000     0.00000    1.000000    
     73 Au    c    0.000000    0.625000    0.125000     0.00000    1.000000    
     74 Au    c    0.000000    0.625000    0.375000     0.00000    1.000000    
     75 Au    c    0.000000    0.625000    0.625000     0.00000    1.000000    
     76 Au    c    0.000000    0.625000    0.875000     0.00000    1.000000    
     77 Au    c    0.000000    0.875000    0.125000     0.00000    1.000000    
     78 Au    c    0.000000    0.875000    0.375000     0.00000    1.000000    
     79 Au    c    0.000000    0.875000    0.625000     0.00000    1.000000    
     80 Au    c    0.000000    0.875000    0.875000     0.00000    1.000000    
     81 Au    c    0.250000    0.125000    0.125000     0.00000    1.000000    
     82 Au    c    0.250000    0.125000    0.375000     0.00000    1.000000    
     83 Au    c    0.250000    0.125000    0.625000     0.00000    1.000000    
     84 Au    c    0.250000    0.125000    0.875000     0.00000    1.000000    
     85 Au    c    0.250000    0.375000    0.125000     0.00000    1.000000    
     86 Au    c    0.250000    0.375000    0.375000     0.00000    1.000000    
     87 Au    c    0.250000    0.375000    0.625000     0.00000    1.000000    
     88 Au    c    0.250000    0.375000    0.875000     0.00000    1.000000    
     89 Au    c    0.250000    0.625000    0.125000     0.00000    1.000000    
     90 Au    c    0.250000    0.625000    0.375000     0.00000    1.000000    
     91 Au    c    0.250000    0.625000    0.625000     0.00000    1.000000    
     92 Au    c    0.250000    0.625000    0.875000     0.00000    1.000000    
     93 Au    c    0.250000    0.875000    0.125000     0.00000    1.000000    
     94 Au    c    0.250000    0.875000    0.375000     0.00000    1.000000    
     95 Au    c    0.250000    0.875000    0.625000     0.00000    1.000000    
     96 Au    c    0.250000    0.875000    0.875000     0.00000    1.000000    
     97 Au    c    0.500000    0.125000    0.125000     0.00000    1.000000    
     98 Au    c    0.500000    0.125000    0.375000     0.00000    1.000000    
     99 Au    c    0.500000    0.125000    0.625000     0.00000    1.000000    
    100 Au    c    0.500000    0.125000    0.875000     0.00000    1.000000    
    101 Au    c    0.500000    0.375000    0.125000     0.00000    1.000000    
    102 Au    c    0.500000    0.375000    0.375000     0.00000    1.000000    
    103 Au    c    0.500000    0.375000    0.625000     0.00000    1.000000    
    104 Au    c    0.500000    0.375000    0.875000     0.00000    1.000000    
    105 Au    c    0.500000    0.625000    0.125000     0.00000    1.000000    
    106 Au    c    0.500000    0.625000    0.375000     0.00000    1.000000    
    107 Au    c    0.500000    0.625000    0.625000     0.00000    1.000000    
    108 Au    c    0.500000    0.625000    0.875000     0.00000    1.000000    
    109 Au    c    0.500000    0.875000    0.125000     0.00000    1.000000    
    110 Au    c    0.500000    0.875000    0.375000     0.00000    1.000000    
    111 Au    c    0.500000    0.875000    0.625000     0.00000    1.000000    
    112 Au    c    0.500000    0.875000    0.875000     0.00000    1.000000    
    113 Au    c    0.750000    0.125000    0.125000     0.00000    1.000000    
    114 Au    c    0.750000    0.125000    0.375000     0.00000    1.000000    
    115 Au    c    0.750000    0.125000    0.625000     0.00000    1.000000    
    116 Au    c    0.750000    0.125000    0.875000     0.00000    1.000000    
    117 Au    c    0.750000    0.375000    0.125000     0.00000    1.000000    
    118 Au    c    0.750000    0.375000    0.375000     0.00000    1.000000    
    119 Au    c    0.750000    0.375000    0.625000     0.00000    1.000000    
    120 Au    c    0.750000    0.375000    0.875000     0.00000    1.000000    
    121 Au    c    0.750000    0.625000    0.125000     0.00000    1.000000    
    122 Au    c    0.750000    0.625000    0.375000     0.00000    1.000000    
    123 Au    c    0.750000    0.625000    0.625000     0.00000    1.000000    
    124 Au    c    0.750000    0.625000    0.875000     0.00000    1.000000    
    125 Au    c    0.750000    0.875000    0.125000     0.00000    1.000000    
    126 Au    c    0.750000    0.875000    0.375000     0.00000    1.000000    
    127 Au    c    0.750000    0.875000    0.625000     0.00000    1.000000    
    128 Au    c    0.750000    0.875000    0.875000     0.00000    1.000000    
    129 Au    c    0.125000    0.000000    0.375000     0.00000    1.000000    
    130 Au    c    0.125000    0.000000    0.625000     0.00000    1.000000    
    131 Au    c    0.125000    0.000000    0.875000     0.00000    1.000000    
    132 Au    c    0.125000    0.250000    0.125000     0.00000    1.000000    
    133 Au    c    0.125000    0.250000    0.375000     0.00000    1.000000    
    134 Au    c    0.125000    0.250000    0.625000     0.00000    1.000000    
    135 Au    c    0.125000    0.250000    0.875000     0.00000    1.000000    
    136 Au    c    0.125000    0.500000    0.125000     0.00000    1.000000    
    137 Au    c    0.125000    0.500000    0.375000     0.00000    1.000000    
    138 Au    c    0.125000    0.500000    0.625000     0.00000    1.000000    
    139 Au    c    0.125000    0.500000    0.875000     0.00000    1.000000    
    140 Au    c    0.125000    0.750000    0.125000     0.00000    1.000000    
    141 Au    c    0.125000    0.750000    0.375000     0.00000    1.000000    
    142 Au    c    0.125000    0.750000    0.625000     0.00000    1.000000    
    143 Au    c    0.125000    0.750000    0.875000     0.00000    1.000000    
    144 Au    c    0.375000    0.000000    0.125000     0.00000    1.000000    
    145 Au    c    0.375000    0.000000    0.375000     0.00000    1.000000    
    146 Au    c    0.375000    0.000000    0.625000     0.00000    1.000000    
    147 Au    c    0.375000    0.000000    0.875000     0.00000    1.000000    
    148 Au    c    0.375000    0.250000    0.125000     0.00000    1.000000    
    149 Au    c    0.375000    0.250000    0.375000     0.00000    1.000000    
    150 Au    c    0.375000    0.250000    0.625000     0.00000    1.000000    
    151 Au    c    0.375000    0.250000    0.875000     0.00000    1.000000    
    152 Au    c    0.375000    0.500000    0.125000     0.00000    1.000000    
    153 Au    c    0.375000    0.500000    0.375000     0.00000    1.000000    
    154 Au    c    0.375000    0.500000    0.625000     0.00000    1.000000    
    155 Au    c    0.375000    0.500000    0.875000     0.00000    1.000000    
    156 Au    c    0.375000    0.750000    0.125000     0.00000    1.000000    
    157 Au    c    0.375000    0.750000    0.375000     0.00000    1.000000    
    158 Au    c    0.375000    0.750000    0.625000     0.00000    1.000000    
    159 Au    c    0.375000    0.750000    0.875000     0.00000    1.000000    
    160 Au    c    0.625000    0.000000    0.125000     0.00000    1.000000    
    161 Au    c    0.625000    0.000000    0.375000     0.00000    1.000000    
    162 Au    c    0.625000    0.000000    0.625000     0.00000    1.000000    
    163 Au    c    0.625000    0.000000    0.875000     0.00000    1.000000    
    164 Au    c    0.625000    0.250000    0.125000     0.00000    1.000000    
    165 Au    c    0.625000    0.250000    0.375000     0.00000    1.000000    
    166 Au    c    0.625000    0.250000    0.625000     0.00000    1.000000    
    167 Au    c    0.625000    0.250000    0.875000     0.00000    1.000000    
    168 Au    c    0.625000    0.500000    0.125000     0.00000    1.000000    
    169 Au    c    0.625000    0.500000    0.375000     0.00000    1.000000    
    170 Au    c    0.625000    0.500000    0.625000     0.00000    1.000000    
    171 Au    c    0.625000    0.500000    0.875000     0.00000    1.000000    
    172 Au    c    0.625000    0.750000    0.125000     0.00000    1.000000    
    173 Au    c    0.625000    0.750000    0.375000     0.00000    1.000000    
    174 Au    c    0.625000    0.750000    0.625000     0.00000    1.000000    
    175 Au    c    0.625000    0.750000    0.875000     0.00000    1.000000    
    176 Au    c    0.875000    0.000000    0.125000     0.00000    1.000000    
    177 Au    c    0.875000    0.000000    0.375000     0.00000    1.000000    
    178 Au    c    0.875000    0.000000    0.625000     0.00000    1.000000    
    179 Au    c    0.875000    0.000000    0.875000     0.00000    1.000000    
    180 Au    c    0.875000    0.250000    0.125000     0.00000    1.000000    
    181 Au    c    0.875000    0.250000    0.375000     0.00000    1.000000    
    182 Au    c    0.875000    0.250000    0.625000     0.00000    1.000000    
    183 Au    c    0.875000    0.250000    0.875000     0.00000    1.000000    
    184 Au    c    0.875000    0.500000    0.125000     0.00000    1.000000    
    185 Au    c    0.875000    0.500000    0.375000     0.00000    1.000000    
    186 Au    c    0.875000    0.500000    0.625000     0.00000    1.000000    
    187 Au    c    0.875000    0.500000    0.875000     0.00000    1.000000    
    188 Au    c    0.875000    0.750000    0.125000     0.00000    1.000000    
    189 Au    c    0.875000    0.750000    0.375000     0.00000    1.000000    
    190 Au    c    0.875000    0.750000    0.625000     0.00000    1.000000    
    191 Au    c    0.875000    0.750000    0.875000     0.00000    1.000000    
    192 Au    c    0.125000    0.125000    0.000000     0.00000    1.000000    
    193 Au    c    0.125000    0.125000    0.250000     0.00000    1.000000    
    194 Au    c    0.125000    0.125000    0.500000     0.00000    1.000000    
    195 Au    c    0.125000    0.125000    0.750000     0.00000    1.000000    
    196 Au    c    0.125000    0.375000    0.000000     0.00000    1.000000    
    197 Au    c    0.125000    0.375000    0.250000     0.00000    1.000000    
    198 Au    c    0.125000    0.375000    0.500000     0.00000    1.000000    
    199 Au    c    0.125000    0.375000    0.750000     0.00000    1.000000    
    200 Au    c    0.125000    0.625000    0.000000     0.00000    1.000000    
    201 Au    c    0.125000    0.625000    0.250000     0.00000    1.000000    
    202 Au    c    0.125000    0.625000    0.500000     0.00000    1.000000    
    203 Au    c    0.125000    0.625000    0.750000     0.00000    1.000000    
    204 Au    c    0.125000    0.875000    0.000000     0.00000    1.000000    
    205 Au    c    0.125000    0.875000    0.250000     0.00000    1.000000    
    206 Au    c    0.125000    0.875000    0.500000     0.00000    1.000000    
    207 Au    c    0.125000    0.875000    0.750000     0.00000    1.000000    
    208 Au    c    0.375000    0.125000    0.000000     0.00000    1.000000    
    209 Au    c    0.375000    0.125000    0.250000     0.00000    1.000000    
    210 Au    c    0.375000    0.125000    0.500000     0.00000    1.000000    
    211 Au    c    0.375000    0.125000    0.750000     0.00000    1.000000    
    212 Au    c    0.375000    0.375000    0.000000     0.00000    1.000000    
    213 Au    c    0.375000    0.375000    0.250000     0.00000    1.000000    
    214 Au    c    0.375000    0.375000    0.500000     0.00000    1.000000    
    215 Au    c    0.375000    0.375000    0.750000     0.00000    1.000000    
    216 Au    c    0.375000    0.625000    0.000000     0.00000    1.000000    
    217 Au    c    0.375000    0.625000    0.250000     0.00000    1.000000    
    218 Au    c    0.375000    0.625000    0.500000     0.00000    1.000000    
    219 Au    c    0.375000    0.625000    0.750000     0.00000    1.000000    
    220 Au    c    0.375000    0.875000    0.000000     0.00000    1.000000    
    221 Au    c    0.375000    0.875000    0.250000     0.00000    1.000000    
    222 Au    c    0.375000    0.875000    0.500000     0.00000    1.000000    
    223 Au    c    0.375000    0.875000    0.750000     0.00000    1.000000    
    224 Au    c    0.625000    0.125000    0.000000     0.00000    1.000000    
    225 Au    c    0.625000    0.125000    0.250000     0.00000    1.000000    
    226 Au    c    0.625000    0.125000    0.500000     0.00000    1.000000    
    227 Au    c    0.625000    0.125000    0.750000     0.00000    1.000000    
    228 Au    c    0.625000    0.375000    0.000000     0.00000    1.000000    
    229 Au    c    0.625000    0.375000    0.250000     0.00000    1.000000    
    230 Au    c    0.625000    0.375000    0.500000     0.00000    1.000000    
    231 Au    c    0.625000    0.375000    0.750000     0.00000    1.000000    
    232 Au    c    0.625000    0.625000    0.000000     0.00000    1.000000    
    233 Au    c    0.625000    0.625000    0.250000     0.00000    1.000000    
    234 Au    c    0.625000    0.625000    0.500000     0.00000    1.000000    
    235 Au    c    0.625000    0.625000    0.750000     0.00000    1.000000    
    236 Au    c    0.625000    0.875000    0.000000     0.00000    1.000000    
    237 Au    c    0.625000    0.875000    0.250000     0.00000    1.000000    
    238 Au    c    0.625000    0.875000    0.500000     0.00000    1.000000    
    239 Au    c    0.625000    0.875000    0.750000     0.00000    1.000000    
    240 Au    c    0.875000    0.125000    0.000000     0.00000    1.000000    
    241 Au    c    0.875000    0.125000    0.250000     0.00000    1.000000    
    242 Au    c    0.875000    0.125000    0.500000     0.00000    1.000000    
    243 Au    c    0.875000    0.125000    0.750000     0.00000    1.000000    
    244 Au    c    0.875000    0.375000    0.000000     0.00000    1.000000    
    245 Au    c    0.875000    0.375000    0.250000     0.00000    1.000000    
    246 Au    c    0.875000    0.375000    0.500000     0.00000    1.000000    
    247 Au    c    0.875000    0.375000    0.750000     0.00000    1.000000    
    248 Au    c    0.875000    0.625000    0.000000     0.00000    1.000000    
    249 Au    c    0.875000    0.625000    0.250000     0.00000    1.000000    
    250 Au    c    0.875000    0.625000    0.500000     0.00000    1.000000    
    251 Au    c    0.875000    0.625000    0.750000     0.00000    1.000000    
    252 Au    c    0.875000    0.875000    0.000000     0.00000    1.000000    
    253 Au    c    0.875000    0.875000    0.250000     0.00000    1.000000    
    254 Au    c    0.875000    0.875000    0.500000     0.00000    1.000000    
    255 Au    c    0.875000    0.875000    0.750000     0.00000    1.000000    
--------------------------------------------------------------------------------



  Distance calculation :


  Cutoff for distances  =      2.000000 Angstroms

--------------------------------------------------------------------------------
  Asymmetric unit site  Full lattice sites    No.  Distance      No.  Distance
      No.   At.No.            At.No.                (Angs)             (Angs) 
--------------------------------------------------------------------------------



********************************************************************************
*  General input information                                                   *
********************************************************************************

  Species output for all configurations : 

--------------------------------------------------------------------------------
  Species    Type    Atomic    Atomic    Charge       Radii (Angs)     Library
                     Number     Mass       (e)     Cova   Ionic  VDW   Symbol
--------------------------------------------------------------------------------
    Au       Core       79     196.97   0.000000   1.500  0.000  1.850          
--------------------------------------------------------------------------------


  Lattice summation method               =    Ewald          (3-D)
                                         =    Parry          (2-D)
                                         =    Saunders et al (1-D)
  Accuracy factor for lattice sums       =   12.000


  Time limit = Infinity

  Maximum range for interatomic potentials =    100000.000000 Angstroms

  General interatomic potentials :

--------------------------------------------------------------------------------
Atom  Types   Potential      Parameter       Value         Units   Cutoffs(Ang)
  1     2                                                            Min /  Max 
--------------------------------------------------------------------------------
Au   c Au   c Many-body                                             0.000 12.000
--------------------------------------------------------------------------------
Au   c Au   c Lennard       Lennard-Jones A  16352.119    eV*Ang^m  0.000 12.000
                            Lennard-Jones B  0.0000000    eV*Ang^n  
                            Exponent m        10          None
                            Exponent n         6          None
--------------------------------------------------------------------------------

  Embedded Atom Model Densities :

--------------------------------------------------------------------------------
  Atom(s)       Functional Form          A          B          C         n      
--------------------------------------------------------------------------------
  Au   c        Power Law           0.1488E+05  0.000      0.000         8
--------------------------------------------------------------------------------


  Embedded Atom Model alloy parameters :

--------------------------------------------------------------------------------
  Atom(s)                          Scale factor 
--------------------------------------------------------------------------------
  Au    c                            1.000000
--------------------------------------------------------------------------------

  Embedded Atom Model functional = Square Root

--------------------------------------------------------------------------------
  Atom                     A     
--------------------------------------------------------------------------------
  Au    c               1.000000
--------------------------------------------------------------------------------


  Manybody second derivative cross term cutoffs to be scaled by = 0.50000000

********************************************************************************
*  Output for configuration   1                                                *
********************************************************************************


  Components of energy : 

--------------------------------------------------------------------------------
  Interatomic potentials     =         644.79033231 eV    
  Many-body potentials       =       -1607.79626647 eV    
  Monopole - monopole (real) =           0.00000000 eV    
  Monopole - monopole (recip)=           0.00000000 eV    
  Monopole - monopole (total)=           0.00000000 eV    
--------------------------------------------------------------------------------
  Total lattice energy       =        -963.00593416 eV    
--------------------------------------------------------------------------------
  Total lattice energy       =          -92915.3518 kJ/(mole unit cells)
--------------------------------------------------------------------------------

  Peak dynamic memory used =       1.30 MB 


  Timing analysis for GULP :

--------------------------------------------------------------------------------
  Task / Subroutine                                          Time (Seconds)
--------------------------------------------------------------------------------
  Calculation of real space energy and derivatives                0.0158
--------------------------------------------------------------------------------
  Total CPU time                                                  0.0354
--------------------------------------------------------------------------------


  Dump file written as au_eam_4.grs


  Job Finished at 20:57.01  6th January    2019                               

